ITEM: TIMESTEP
2500
ITEM: NUMBER OF SURFS
192
ITEM: BOX BOUNDS oo rr rr
0 0.0005
0 0.0005
0 0.0005
ITEM: SURFS id f_f_drag_cumul[1] f_f_drag_cumul[2] f_f_drag_cumul[3] 
1 0 0 0 
5 0 0 0 
9 0 0 0 
13 0 0 0 
17 0 0 0 
21 0 0 0 
25 0 0 0 
29 0 0 0 
33 0 0 0 
37 0 0 0 
41 0 0 0 
45 0 0 0 
49 0 0 0 
53 0 0 0 
57 0 0 0 
61 0 0 0 
65 0 0 0 
69 0 0 0 
73 0 0 0 
77 0 0 0 
81 0 0 0 
85 0 0 0 
89 0 0 0 
93 0 0 0 
97 0 0 0 
101 0 0 0 
105 0 0 0 
109 0 0 0 
113 0 0 0 
117 0 0 0 
121 0 0 0 
125 0 0 0 
129 0 0 0 
133 0 0 0 
137 0 0 0 
141 0 0 0 
145 0 0 0 
149 0 0 0 
153 0 0 0 
157 0 0 0 
161 0 0 0 
165 0 0 0 
169 0 0 0 
173 0 0 0 
177 0 0 0 
181 0 0 0 
185 0 0 0 
189 0 0 0 
2 0 0 0 
6 0 0 0 
10 0 0 0 
14 0 0 0 
18 0 0 0 
22 0 0 0 
26 0 0 0 
30 0 0 0 
34 0 0 0 
38 0 0 0 
42 0 0 0 
46 0 0 0 
50 0 0 0 
54 0 0 0 
58 0 0 0 
62 0 0 0 
66 0 0 0 
70 0 0 0 
74 0 0 0 
78 0 0 0 
82 0 0 0 
86 0 0 0 
90 0 0 0 
94 0 0 0 
98 0 0 0 
102 0 0 0 
106 0 0 0 
110 0 0 0 
114 0 0 0 
118 0 0 0 
122 0 0 0 
126 0 0 0 
130 0 0 0 
134 0 0 0 
138 0 0 0 
142 0 0 0 
146 0 0 0 
150 0 0 0 
154 0 0 0 
158 0 0 0 
162 0 0 0 
166 0 0 0 
170 0 0 0 
174 0 0 0 
178 0 0 0 
182 0 0 0 
186 0 0 0 
190 0 0 0 
3 0 0 0 
7 0 0 0 
11 0 0 0 
15 0 0 0 
19 0 0 0 
23 0 0 0 
27 0 0 0 
31 0 0 0 
35 0 0 0 
39 0 0 0 
43 0 0 0 
47 0 0 0 
51 0 0 0 
55 0 0 0 
59 0 0 0 
63 0 0 0 
67 0 0 0 
71 0 0 0 
75 0 0 0 
79 0 0 0 
83 0 0 0 
87 0 0 0 
91 0 0 0 
95 0 0 0 
99 0 0 0 
103 0 0 0 
107 0 0 0 
111 0 0 0 
115 0 0 0 
119 0 0 0 
123 0 0 0 
127 0 0 0 
131 0 0 0 
135 0 0 0 
139 0 0 0 
143 0 0 0 
147 0 0 0 
151 0 0 0 
155 0 0 0 
159 0 0 0 
163 0 0 0 
167 0 0 0 
171 0 0 0 
175 0 0 0 
179 0 0 0 
183 0 0 0 
187 0 0 0 
191 0 0 0 
4 0 0 0 
8 0 0 0 
12 0 0 0 
16 0 0 0 
20 0 0 0 
24 0 0 0 
28 0 0 0 
32 0 0 0 
36 0 0 0 
40 0 0 0 
44 0 0 0 
48 0 0 0 
52 0 0 0 
56 0 0 0 
60 0 0 0 
64 0 0 0 
68 0 0 0 
72 0 0 0 
76 0 0 0 
80 0 0 0 
84 0 0 0 
88 0 0 0 
92 0 0 0 
96 0 0 0 
100 0 0 0 
104 0 0 0 
108 0 0 0 
112 0 0 0 
116 0 0 0 
120 0 0 0 
124 0 0 0 
128 0 0 0 
132 0 0 0 
136 0 0 0 
140 0 0 0 
144 0 0 0 
148 0 0 0 
152 0 0 0 
156 0 0 0 
160 0 0 0 
164 0 0 0 
168 0 0 0 
172 0 0 0 
176 0 0 0 
180 0 0 0 
184 0 0 0 
188 0 0 0 
192 0 0 0 
ITEM: TIMESTEP
5000
ITEM: NUMBER OF SURFS
192
ITEM: BOX BOUNDS oo rr rr
0 0.0005
0 0.0005
0 0.0005
ITEM: SURFS id f_f_drag_cumul[1] f_f_drag_cumul[2] f_f_drag_cumul[3] 
1 1.2078e-10 6.87959e-11 8.84065e-11 
5 2.47364e-10 1.54042e-10 6.05747e-11 
9 2.64425e-10 1.80914e-10 -6.24042e-11 
13 1.32789e-10 9.8419e-11 -1.01141e-10 
17 2.15047e-10 4.2106e-11 1.46307e-10 
21 5.12591e-10 1.06151e-10 1.16858e-10 
25 5.72956e-10 1.21472e-10 -1.27138e-10 
29 2.63606e-10 6.72154e-11 -1.78949e-10 
33 2.30007e-10 -4.2957e-11 1.39131e-10 
37 4.84882e-10 -9.89439e-11 9.82619e-11 
41 5.46971e-10 -1.20239e-10 -1.11401e-10 
45 2.89447e-10 -6.91935e-11 -1.77915e-10 
49 1.21115e-10 -6.47561e-11 6.31954e-11 
53 2.23431e-10 -1.31874e-10 4.00581e-11 
57 2.14652e-10 -1.40325e-10 -4.04962e-11 
61 1.2443e-10 -8.56221e-11 -7.31111e-11 
65 6.71448e-11 8.94768e-11 7.06292e-11 
69 1.30378e-10 1.83205e-10 4.54009e-11 
73 1.46604e-10 1.83015e-10 -4.97927e-11 
77 9.28851e-11 9.35326e-11 -8.14062e-11 
81 2.6691e-11 8.72776e-11 6.68159e-11 
85 5.46467e-11 2.01126e-10 4.35636e-11 
89 6.66483e-11 2.16782e-10 -5.14918e-11 
93 3.93488e-11 1.14892e-10 -8.21923e-11 
97 -3.6764e-12 4.99738e-11 3.13141e-11 
101 -6.86185e-12 7.60708e-11 1.51878e-11 
105 -1.41341e-11 8.94944e-11 -2.11951e-11 
109 -4.74163e-12 5.16447e-11 -3.41083e-11 
113 -8.18818e-12 1.83063e-11 9.75749e-12 
117 -9.56703e-12 1.95639e-11 4.6041e-12 
121 -1.23882e-11 2.24325e-11 -5.14394e-12 
125 -8.10673e-12 1.26864e-11 -8.32642e-12 
129 6.12124e-11 6.4336e-11 9.19938e-11 
133 1.27025e-10 4.50097e-11 1.76277e-10 
137 1.57082e-10 -5.11866e-11 1.96092e-10 
141 9.89062e-11 -8.81022e-11 1.1362e-10 
145 2.38216e-11 5.90041e-11 8.25263e-11 
149 5.98145e-11 4.38518e-11 2.04843e-10 
153 6.52202e-11 -4.77397e-11 2.10406e-10 
157 4.2889e-11 -9.16584e-11 1.29142e-10 
161 -5.02665e-12 3.12905e-11 5.21533e-11 
165 -1.2336e-11 1.84397e-11 8.849e-11 
169 -1.05753e-11 -2.08983e-11 8.76379e-11 
173 -9.0224e-12 -3.78971e-11 5.80384e-11 
177 -5.3347e-12 6.11183e-12 1.1326e-11 
181 -1.32678e-11 5.26842e-12 2.82463e-11 
185 -1.09369e-11 -4.58787e-12 1.89924e-11 
189 -9.22848e-12 -9.29652e-12 1.42856e-11 
2 1.33593e-10 9.53104e-11 7.81447e-11 
6 2.26301e-10 1.5057e-10 4.29127e-11 
10 2.19848e-10 1.32289e-10 -4.19859e-11 
14 1.22639e-10 7.10876e-11 -6.74107e-11 
18 2.59769e-10 6.14199e-11 1.62036e-10 
22 5.21513e-10 1.18711e-10 1.04935e-10 
26 4.89038e-10 1.00428e-10 -1.00598e-10 
30 2.14313e-10 4.06639e-11 -1.25518e-10 
34 2.56061e-10 -6.3449e-11 1.77603e-10 
38 5.83944e-10 -1.30855e-10 1.30923e-10 
42 5.16182e-10 -1.03673e-10 -1.17557e-10 
46 2.11134e-10 -4.15517e-11 -1.43162e-10 
50 1.42931e-10 -1.11562e-10 1.05883e-10 
54 2.45262e-10 -1.68009e-10 5.83658e-11 
58 2.49064e-10 -1.55832e-10 -6.3169e-11 
62 1.1782e-10 -7.20276e-11 -8.353e-11 
66 8.75162e-11 1.00222e-10 6.67186e-11 
70 1.27147e-10 1.57092e-10 3.40645e-11 
74 9.29448e-11 1.35194e-10 -2.39471e-11 
78 5.63206e-11 8.347e-11 -4.80756e-11 
82 3.80416e-11 1.0917e-10 7.05922e-11 
86 6.06845e-11 2.03435e-10 4.37117e-11 
90 4.92929e-11 1.7849e-10 -3.50781e-11 
94 2.17356e-11 7.71192e-11 -4.88715e-11 
98 -8.04333e-12 5.35172e-11 3.70394e-11 
102 -1.87167e-11 1.0928e-10 2.58201e-11 
106 -1.26954e-11 1.07537e-10 -2.63612e-11 
110 -4.24644e-12 5.41442e-11 -4.09981e-11 
114 -1.08903e-11 1.64026e-11 1.27109e-11 
118 -1.75503e-11 3.07876e-11 7.44959e-12 
122 -1.64797e-11 3.06011e-11 -7.93318e-12 
126 -8.36543e-12 1.85692e-11 -1.3581e-11 
130 7.88427e-11 6.02179e-11 9.20606e-11 
134 1.17607e-10 2.87085e-11 1.46904e-10 
138 1.01814e-10 -2.91761e-11 1.46171e-10 
142 4.95919e-11 -4.37902e-11 7.35386e-11 
146 3.44974e-11 6.4886e-11 1.00269e-10 
150 7.15556e-11 5.02506e-11 2.21478e-10 
154 4.11132e-11 -3.42483e-11 1.62411e-10 
158 1.85761e-11 -5.18304e-11 8.58742e-11 
162 -7.23243e-12 3.87762e-11 5.42288e-11 
166 -1.43049e-11 2.55417e-11 9.8877e-11 
170 -1.03584e-11 -2.37615e-11 9.23584e-11 
174 -4.3829e-12 -3.31788e-11 4.76178e-11 
178 -1.03998e-11 1.2926e-11 1.37892e-11 
182 -2.13303e-11 7.07098e-12 3.47458e-11 
186 -1.39678e-11 -6.44533e-12 2.88707e-11 
190 -9.62296e-12 -1.33464e-11 1.95052e-11 
3 -6.62325e-12 4.98561e-12 6.13027e-12 
7 -9.5573e-12 6.98047e-12 4.06202e-12 
11 -1.49006e-11 1.09617e-11 -3.77361e-12 
15 -1.01337e-11 1.01209e-11 -1.02848e-11 
19 -8.33178e-12 1.56446e-12 7.25899e-12 
23 -1.10761e-11 2.66686e-12 3.21461e-12 
27 -8.23755e-12 2.95591e-12 -2.8951e-12 
31 -9.72825e-12 2.79724e-12 -9.55085e-12 
35 -4.58651e-12 -1.25754e-12 3.80957e-12 
39 -8.62444e-12 -2.54758e-12 2.37066e-12 
43 -9.82125e-12 -3.73931e-12 -2.8855e-12 
47 -9.00005e-12 -3.02142e-12 -7.79777e-12 
51 -6.68915e-12 -3.72114e-12 4.17298e-12 
55 -7.34348e-12 -6.49804e-12 1.9347e-12 
59 -8.02128e-12 -7.32494e-12 -2.18741e-12 
63 -5.62646e-12 -5.59323e-12 -5.19159e-12 
67 5.65788e-11 -7.70039e-11 6.01416e-11 
71 1.22311e-10 -1.65075e-10 4.18213e-11 
75 1.54574e-10 -1.86105e-10 -4.70077e-11 
79 1.01126e-10 -1.13217e-10 -8.96505e-11 
83 2.99659e-11 -9.15373e-11 6.63843e-11 
87 5.30601e-11 -1.95152e-10 4.65178e-11 
91 7.51582e-11 -2.43446e-10 -6.11911e-11 
95 3.7825e-11 -1.09054e-10 -7.86925e-11 
99 -4.17485e-12 -4.66205e-11 2.99127e-11 
103 -1.3832e-11 -8.81809e-11 1.78742e-11 
107 -1.80744e-11 -1.05031e-10 -2.52287e-11 
111 -1.01375e-11 -5.71012e-11 -3.63574e-11 
115 -7.96708e-12 -1.76105e-11 8.99863e-12 
119 -1.10679e-11 -2.06944e-11 5.25511e-12 
123 -1.24016e-11 -1.87329e-11 -3.57426e-12 
127 -1.0769e-11 -1.41848e-11 -1.03228e-11 
131 6.31021e-11 6.47344e-11 -8.59703e-11 
135 1.21055e-10 3.96987e-11 -1.65391e-10 
139 1.51005e-10 -4.57402e-11 -1.91578e-10 
143 9.80508e-11 -8.78158e-11 -1.0708e-10 
147 2.48995e-11 6.05231e-11 -8.39885e-11 
151 6.04914e-11 4.81851e-11 -2.07032e-10 
155 6.46306e-11 -5.13416e-11 -2.10405e-10 
159 3.27605e-11 -6.93412e-11 -9.79743e-11 
163 -7.68459e-12 3.51766e-11 -5.23016e-11 
167 -8.62647e-12 1.85544e-11 -8.32866e-11 
171 -1.33343e-11 -2.22685e-11 -1.03328e-10 
175 -1.02203e-11 -3.54758e-11 -5.16448e-11 
179 -8.23699e-12 1.07337e-11 -1.82455e-11 
183 -1.0469e-11 4.71771e-12 -1.93195e-11 
187 -1.14857e-11 -5.89954e-12 -1.98788e-11 
191 -8.25151e-12 -8.6362e-12 -1.46648e-11 
4 -6.61876e-12 4.82339e-12 5.16525e-12 
8 -6.26323e-12 6.09099e-12 9.57916e-13 
12 -6.25352e-12 5.37152e-12 -2.66465e-12 
16 -3.74507e-12 2.76841e-12 -2.45683e-12 
20 -8.46422e-12 2.14566e-12 7.71378e-12 
24 -7.78821e-12 1.59799e-12 2.03881e-12 
28 -5.53846e-12 1.84038e-12 -1.36639e-12 
32 -1.08869e-11 2.37204e-12 -8.11989e-12 
36 -1.0736e-11 -4.16674e-12 8.93734e-12 
40 -1.49936e-11 -4.47348e-12 5.44327e-12 
44 -9.2981e-12 -2.46108e-12 -2.38407e-12 
48 -8.27438e-12 -2.03879e-12 -5.69009e-12 
52 -9.60665e-12 -9.62285e-12 9.1188e-12 
56 -1.16608e-11 -9.68357e-12 3.18199e-12 
60 -1.00719e-11 -7.09852e-12 -2.7945e-12 
64 -8.00248e-12 -7.23746e-12 -6.9932e-12 
68 8.13304e-11 -9.76833e-11 6.30291e-11 
72 1.23194e-10 -1.58618e-10 2.95729e-11 
76 1.01516e-10 -1.45946e-10 -2.77884e-11 
80 4.94175e-11 -7.74656e-11 -4.53032e-11 
84 3.848e-11 -1.09433e-10 7.24905e-11 
88 5.68886e-11 -1.89921e-10 3.94389e-11 
92 5.50929e-11 -1.87229e-10 -3.94946e-11 
96 2.41849e-11 -8.36923e-11 -5.54651e-11 
100 -9.81166e-12 -5.35698e-11 3.98446e-11 
104 -1.50198e-11 -9.56611e-11 2.59856e-11 
108 -1.08704e-11 -9.34542e-11 -2.28462e-11 
112 -4.54314e-12 -4.52675e-11 -3.30635e-11 
116 -9.1362e-12 -1.15159e-11 9.2056e-12 
120 -1.84138e-11 -3.17694e-11 7.59137e-12 
124 -1.52571e-11 -2.52703e-11 -6.26321e-12 
128 -8.60119e-12 -1.5801e-11 -1.253e-11 
132 8.04808e-11 6.13275e-11 -9.37668e-11 
136 1.27428e-10 3.11252e-11 -1.59825e-10 
140 9.80962e-11 -2.76056e-11 -1.39485e-10 
144 5.46111e-11 -4.74162e-11 -7.81336e-11 
148 3.64656e-11 7.43753e-11 -1.08657e-10 
152 6.76929e-11 4.60103e-11 -2.17219e-10 
156 4.93624e-11 -3.89764e-11 -1.6413e-10 
160 2.30468e-11 -5.53135e-11 -8.44876e-11 
164 -1.00247e-11 4.06275e-11 -5.77984e-11 
168 -1.24948e-11 2.35333e-11 -1.03272e-10 
172 -1.27296e-11 -2.29036e-11 -1.08244e-10 
176 -5.63224e-12 -3.85539e-11 -5.20479e-11 
180 -7.39061e-12 8.57237e-12 -1.07191e-11 
184 -1.50725e-11 6.23658e-12 -2.74521e-11 
188 -1.60441e-11 -8.12201e-12 -2.97808e-11 
192 -8.66219e-12 -1.1717e-11 -1.68038e-11 
