ITEM: TIMESTEP
3000
ITEM: NUMBER OF SURFS
192
ITEM: BOX BOUNDS oo rr rr
0 0.0005
0 0.0005
0 0.0005
ITEM: SURFS id f_f_drag_blocks[1] f_f_drag_blocks[2] f_f_drag_blocks[3] 
1 0 0 0 
5 0 0 0 
9 0 0 0 
13 0 0 0 
17 0 0 0 
21 0 0 0 
25 0 0 0 
29 0 0 0 
33 0 0 0 
37 0 0 0 
41 0 0 0 
45 0 0 0 
49 0 0 0 
53 0 0 0 
57 0 0 0 
61 0 0 0 
65 0 0 0 
69 0 0 0 
73 0 0 0 
77 0 0 0 
81 0 0 0 
85 0 0 0 
89 0 0 0 
93 0 0 0 
97 0 0 0 
101 0 0 0 
105 0 0 0 
109 0 0 0 
113 0 0 0 
117 0 0 0 
121 0 0 0 
125 0 0 0 
129 0 0 0 
133 0 0 0 
137 0 0 0 
141 0 0 0 
145 0 0 0 
149 0 0 0 
153 0 0 0 
157 0 0 0 
161 0 0 0 
165 0 0 0 
169 0 0 0 
173 0 0 0 
177 0 0 0 
181 0 0 0 
185 0 0 0 
189 0 0 0 
2 0 0 0 
6 0 0 0 
10 0 0 0 
14 0 0 0 
18 0 0 0 
22 0 0 0 
26 0 0 0 
30 0 0 0 
34 0 0 0 
38 0 0 0 
42 0 0 0 
46 0 0 0 
50 0 0 0 
54 0 0 0 
58 0 0 0 
62 0 0 0 
66 0 0 0 
70 0 0 0 
74 0 0 0 
78 0 0 0 
82 0 0 0 
86 0 0 0 
90 0 0 0 
94 0 0 0 
98 0 0 0 
102 0 0 0 
106 0 0 0 
110 0 0 0 
114 0 0 0 
118 0 0 0 
122 0 0 0 
126 0 0 0 
130 0 0 0 
134 0 0 0 
138 0 0 0 
142 0 0 0 
146 0 0 0 
150 0 0 0 
154 0 0 0 
158 0 0 0 
162 0 0 0 
166 0 0 0 
170 0 0 0 
174 0 0 0 
178 0 0 0 
182 0 0 0 
186 0 0 0 
190 0 0 0 
3 0 0 0 
7 0 0 0 
11 0 0 0 
15 0 0 0 
19 0 0 0 
23 0 0 0 
27 0 0 0 
31 0 0 0 
35 0 0 0 
39 0 0 0 
43 0 0 0 
47 0 0 0 
51 0 0 0 
55 0 0 0 
59 0 0 0 
63 0 0 0 
67 0 0 0 
71 0 0 0 
75 0 0 0 
79 0 0 0 
83 0 0 0 
87 0 0 0 
91 0 0 0 
95 0 0 0 
99 0 0 0 
103 0 0 0 
107 0 0 0 
111 0 0 0 
115 0 0 0 
119 0 0 0 
123 0 0 0 
127 0 0 0 
131 0 0 0 
135 0 0 0 
139 0 0 0 
143 0 0 0 
147 0 0 0 
151 0 0 0 
155 0 0 0 
159 0 0 0 
163 0 0 0 
167 0 0 0 
171 0 0 0 
175 0 0 0 
179 0 0 0 
183 0 0 0 
187 0 0 0 
191 0 0 0 
4 0 0 0 
8 0 0 0 
12 0 0 0 
16 0 0 0 
20 0 0 0 
24 0 0 0 
28 0 0 0 
32 0 0 0 
36 0 0 0 
40 0 0 0 
44 0 0 0 
48 0 0 0 
52 0 0 0 
56 0 0 0 
60 0 0 0 
64 0 0 0 
68 0 0 0 
72 0 0 0 
76 0 0 0 
80 0 0 0 
84 0 0 0 
88 0 0 0 
92 0 0 0 
96 0 0 0 
100 0 0 0 
104 0 0 0 
108 0 0 0 
112 0 0 0 
116 0 0 0 
120 0 0 0 
124 0 0 0 
128 0 0 0 
132 0 0 0 
136 0 0 0 
140 0 0 0 
144 0 0 0 
148 0 0 0 
152 0 0 0 
156 0 0 0 
160 0 0 0 
164 0 0 0 
168 0 0 0 
172 0 0 0 
176 0 0 0 
180 0 0 0 
184 0 0 0 
188 0 0 0 
192 0 0 0 
ITEM: TIMESTEP
4000
ITEM: NUMBER OF SURFS
192
ITEM: BOX BOUNDS oo rr rr
0 0.0005
0 0.0005
0 0.0005
ITEM: SURFS id f_f_drag_blocks[1] f_f_drag_blocks[2] f_f_drag_blocks[3] 
1 1.54317e-10 9.59674e-11 1.13223e-10 
5 2.75613e-10 1.82579e-10 6.46834e-11 
9 3.03184e-10 2.20205e-10 -8.27073e-11 
13 1.24155e-10 9.3086e-11 -8.71096e-11 
17 2.45156e-10 4.811e-11 1.6439e-10 
21 5.34826e-10 1.01143e-10 1.16015e-10 
25 5.49285e-10 1.12227e-10 -1.27945e-10 
29 2.0231e-10 5.21865e-11 -1.49079e-10 
33 2.68665e-10 -4.89863e-11 1.54789e-10 
37 4.93415e-10 -1.06359e-10 1.06623e-10 
41 5.27998e-10 -1.20036e-10 -1.13131e-10 
45 2.52283e-10 -6.06975e-11 -1.5066e-10 
49 1.00452e-10 -4.96674e-11 5.49203e-11 
53 1.93659e-10 -1.13844e-10 3.14768e-11 
57 2.14027e-10 -1.43254e-10 -4.89368e-11 
61 1.37193e-10 -9.33018e-11 -8.42921e-11 
65 5.9208e-11 8.26989e-11 5.89816e-11 
69 1.31829e-10 1.81615e-10 4.43028e-11 
73 1.62962e-10 2.00467e-10 -4.05586e-11 
77 8.18729e-11 9.86414e-11 -8.14877e-11 
81 1.7428e-11 8.6165e-11 5.99694e-11 
85 5.86434e-11 2.06721e-10 5.39209e-11 
89 6.08858e-11 2.24283e-10 -5.54193e-11 
93 3.38e-11 1.21378e-10 -8.217e-11 
97 -3.2411e-12 5.49016e-11 3.65383e-11 
101 -1.62891e-11 1.1258e-10 2.34567e-11 
105 -1.45579e-11 8.1539e-11 -2.46259e-11 
109 -8.11281e-12 4.77529e-11 -3.37863e-11 
113 -4.46664e-12 9.71252e-12 6.3429e-12 
117 -9.06451e-12 1.79911e-11 2.67996e-12 
121 -1.62651e-11 2.21423e-11 -7.03053e-13 
125 -1.73407e-11 2.37891e-11 -2.28644e-11 
129 5.53788e-11 5.55423e-11 7.12336e-11 
133 1.73587e-10 6.08978e-11 2.43521e-10 
137 1.53723e-10 -5.18916e-11 1.98196e-10 
141 1.08671e-10 -9.60925e-11 1.15687e-10 
145 2.58579e-11 6.97266e-11 9.87544e-11 
149 6.44061e-11 4.83664e-11 2.30584e-10 
153 7.96617e-11 -6.46621e-11 2.66973e-10 
157 3.84112e-11 -8.80618e-11 1.22407e-10 
161 -4.97286e-12 2.26895e-11 3.76009e-11 
165 -1.04406e-11 1.04837e-11 8.50951e-11 
169 -1.39198e-11 -1.41646e-11 9.00521e-11 
173 -1.05999e-11 -3.04081e-11 4.83174e-11 
177 -1.27096e-11 1.28158e-11 1.55025e-11 
181 -5.03986e-12 1.69851e-12 1.17233e-11 
185 -9.2584e-12 -4.73186e-13 1.84689e-11 
189 -1.38956e-11 -1.29917e-11 2.1828e-11 
2 1.38188e-10 9.55242e-11 7.92118e-11 
6 2.44379e-10 1.61458e-10 4.39919e-11 
10 2.16055e-10 1.23751e-10 -4.18401e-11 
14 1.38537e-10 7.40828e-11 -6.98155e-11 
18 2.61866e-10 6.30373e-11 1.69431e-10 
22 5.57497e-10 1.21163e-10 1.14557e-10 
26 4.6065e-10 9.88987e-11 -9.29018e-11 
30 1.89354e-10 3.28664e-11 -1.06068e-10 
34 2.58793e-10 -6.0538e-11 1.65974e-10 
38 5.97446e-10 -1.26648e-10 1.38639e-10 
42 5.34777e-10 -1.22654e-10 -1.19139e-10 
46 2.29221e-10 -3.57759e-11 -1.54607e-10 
50 1.16209e-10 -1.0185e-10 9.47472e-11 
54 2.81529e-10 -1.93861e-10 7.23201e-11 
58 2.89509e-10 -1.74986e-10 -6.37887e-11 
62 1.2438e-10 -7.81239e-11 -9.2209e-11 
66 8.99893e-11 1.09191e-10 7.7481e-11 
70 1.2482e-10 1.55412e-10 2.66689e-11 
74 7.96852e-11 1.10077e-10 -2.54345e-11 
78 4.50899e-11 6.97705e-11 -4.06138e-11 
82 4.15279e-11 1.07571e-10 7.21813e-11 
86 5.53415e-11 1.70436e-10 4.08788e-11 
90 3.56788e-11 1.42925e-10 -3.40092e-11 
94 1.77522e-11 7.54614e-11 -5.00674e-11 
98 -5.04273e-12 7.45141e-11 5.82414e-11 
102 -1.18513e-11 1.00672e-10 2.71384e-11 
106 -8.83287e-12 8.17927e-11 -1.95191e-11 
110 -4.23668e-12 4.69117e-11 -3.36886e-11 
114 -1.01091e-11 2.06105e-11 1.47383e-11 
118 -1.11838e-11 1.92292e-11 3.31137e-12 
122 -1.65596e-11 3.79549e-11 -6.68996e-12 
126 -8.85691e-12 9.15355e-12 -1.17275e-11 
130 7.1891e-11 5.65554e-11 8.84372e-11 
134 1.02387e-10 2.74044e-11 1.20387e-10 
138 9.47352e-11 -3.09901e-11 1.42321e-10 
142 5.36709e-11 -4.86151e-11 9.11267e-11 
146 3.81326e-11 5.63954e-11 8.58183e-11 
150 4.68643e-11 4.12573e-11 1.73388e-10 
154 3.32641e-11 -3.55548e-11 1.62294e-10 
158 1.95098e-11 -4.75991e-11 8.21392e-11 
162 -1.04762e-11 3.74178e-11 5.44752e-11 
166 -1.39011e-11 2.78863e-11 1.10638e-10 
170 -1.37538e-11 -2.64547e-11 1.25177e-10 
174 -4.61759e-12 -4.07494e-11 6.0197e-11 
178 -8.09119e-12 1.09186e-11 1.13962e-11 
182 -1.44513e-11 3.70339e-12 2.42433e-11 
186 -7.12989e-12 -7.6072e-12 2.14914e-11 
190 -6.3381e-12 -1.14152e-11 1.43978e-11 
3 -6.37199e-12 6.92359e-12 6.25918e-12 
7 -8.44454e-12 9.08434e-12 -1.7625e-13 
11 -1.12634e-11 1.21461e-11 -3.17308e-12 
15 -1.04584e-11 9.13047e-12 -1.02705e-11 
19 -1.29776e-11 3.57768e-12 8.54595e-12 
23 -7.62597e-12 3.95727e-13 6.19505e-13 
27 -1.16695e-11 -1.92454e-12 -4.38003e-12 
31 -5.91842e-12 1.04391e-12 -4.70601e-12 
35 -5.7885e-12 -4.57995e-13 2.77038e-12 
39 -9.41659e-12 -2.63117e-12 1.31904e-14 
43 -1.03963e-11 -1.15594e-12 -3.48574e-12 
47 -8.05597e-12 -2.39173e-12 -6.0788e-12 
51 -4.29262e-12 -3.09099e-12 3.94719e-12 
55 -9.21232e-12 -7.03285e-12 1.43378e-12 
59 -1.00806e-11 -9.00712e-12 -9.1734e-13 
63 -1.08259e-11 -7.56828e-12 -5.42162e-12 
67 6.91484e-11 -9.74961e-11 7.9307e-11 
71 1.0739e-10 -1.51374e-10 4.72776e-11 
75 1.51317e-10 -1.88716e-10 -4.96199e-11 
79 8.23393e-11 -9.03229e-11 -7.59254e-11 
83 1.96111e-11 -8.36208e-11 5.77253e-11 
87 6.84461e-11 -2.35756e-10 6.36554e-11 
91 5.66409e-11 -2.1331e-10 -5.12777e-11 
95 4.27188e-11 -1.26003e-10 -8.51437e-11 
99 -7.83573e-12 -3.35811e-11 2.77731e-11 
103 -1.1247e-11 -9.78787e-11 2.22559e-11 
107 -1.02665e-11 -1.00503e-10 -1.95828e-11 
111 -1.16708e-11 -5.61083e-11 -3.35127e-11 
115 -1.72873e-11 -3.22252e-11 1.81332e-11 
119 -1.25308e-11 -2.1299e-11 4.90382e-12 
123 -7.51324e-12 -8.82978e-12 -8.8862e-13 
127 -4.91099e-12 -7.84886e-12 -3.52969e-12 
131 8.01378e-11 8.83139e-11 -1.08855e-10 
135 1.13503e-10 3.6869e-11 -1.63538e-10 
139 1.40179e-10 -4.98957e-11 -1.58139e-10 
143 9.88782e-11 -9.03783e-11 -1.15865e-10 
147 2.81657e-11 7.12988e-11 -8.48547e-11 
151 6.20403e-11 4.18901e-11 -1.82928e-10 
155 5.53501e-11 -4.31621e-11 -1.90688e-10 
159 3.74326e-11 -7.81917e-11 -1.11508e-10 
163 -6.10189e-12 3.62226e-11 -5.34052e-11 
167 -1.27073e-12 7.97779e-12 -5.40053e-11 
171 -1.84774e-11 -1.78355e-11 -9.94473e-11 
175 -7.74943e-12 -3.44707e-11 -5.46573e-11 
179 -8.92418e-12 1.40476e-11 -2.83538e-11 
183 -8.39599e-12 5.70347e-12 -1.79996e-11 
187 -1.63049e-11 -5.00997e-12 -2.73504e-11 
191 -9.58281e-12 -8.31031e-12 -1.27286e-11 
4 -3.41823e-12 4.77134e-12 3.24758e-12 
8 -5.27462e-12 6.16662e-12 3.74197e-12 
12 -7.08784e-12 7.43241e-12 -1.52052e-12 
16 -5.6044e-12 3.79273e-12 -3.4505e-12 
20 -9.11868e-12 2.29568e-12 9.70279e-12 
24 -8.95863e-12 4.58924e-12 2.31254e-12 
28 -1.02667e-11 1.55503e-12 -3.81771e-12 
32 -1.5071e-11 2.86656e-12 -1.18946e-11 
36 -1.63672e-11 -2.16313e-12 1.23932e-11 
40 -7.98877e-12 -1.05871e-12 2.45173e-12 
44 -6.35187e-12 -1.73213e-12 -9.19496e-13 
48 -8.5251e-12 -6.43308e-14 -9.08697e-12 
52 -9.00744e-12 -6.09949e-12 6.83733e-12 
56 -1.16975e-11 -9.42939e-12 4.14489e-12 
60 -4.81705e-12 -5.01893e-12 -2.42087e-12 
64 -5.94459e-12 -5.2417e-12 -2.86507e-12 
68 8.33815e-11 -1.06158e-10 6.57335e-11 
72 9.92192e-11 -1.21459e-10 2.44625e-11 
76 8.91698e-11 -1.23343e-10 -1.98383e-11 
80 4.47601e-11 -7.52787e-11 -4.52445e-11 
84 4.06755e-11 -1.1303e-10 6.82459e-11 
88 8.79434e-11 -2.71776e-10 5.54035e-11 
92 5.18571e-11 -1.88999e-10 -4.48351e-11 
96 2.34167e-11 -8.76591e-11 -5.79577e-11 
100 -1.65022e-11 -7.47717e-11 5.70302e-11 
104 -1.66169e-11 -9.3182e-11 2.59025e-11 
108 -1.46176e-11 -9.94621e-11 -2.80318e-11 
112 -3.80822e-12 -6.42842e-11 -4.30149e-11 
116 -7.77981e-12 -1.68247e-11 1.19115e-11 
120 -1.32285e-11 -2.02217e-11 1.00323e-11 
124 -1.93594e-11 -2.71417e-11 -7.56892e-12 
128 -5.8258e-12 -1.19604e-11 -8.30187e-12 
132 7.99434e-11 6.80869e-11 -9.56489e-11 
136 1.53291e-10 4.91597e-11 -1.91445e-10 
140 7.96198e-11 -1.37066e-11 -1.11946e-10 
144 6.27492e-11 -4.70739e-11 -8.39595e-11 
148 3.64583e-11 7.06662e-11 -9.34554e-11 
152 5.39113e-11 3.13391e-11 -1.68495e-10 
156 5.29583e-11 -3.66205e-11 -1.81345e-10 
160 2.62052e-11 -5.50987e-11 -8.84877e-11 
164 -2.89564e-12 2.92434e-11 -4.3057e-11 
168 -1.18765e-11 2.49657e-11 -1.15683e-10 
172 -1.05232e-11 -2.26477e-11 -8.59323e-11 
176 -7.70585e-12 -4.24026e-11 -5.46756e-11 
180 -9.96816e-12 1.27106e-11 -1.6299e-11 
184 -1.50932e-11 4.22569e-12 -2.58704e-11 
188 -9.74132e-12 -3.04597e-12 -2.01296e-11 
192 -1.36977e-11 -1.81515e-11 -2.55747e-11 
ITEM: TIMESTEP
5000
ITEM: NUMBER OF SURFS
192
ITEM: BOX BOUNDS oo rr rr
0 0.0005
0 0.0005
0 0.0005
ITEM: SURFS id f_f_drag_blocks[1] f_f_drag_blocks[2] f_f_drag_blocks[3] 
1 1.18169e-10 6.98952e-11 8.78609e-11 
5 3.03246e-10 1.89736e-10 7.91285e-11 
9 2.64162e-10 1.94073e-10 -6.10237e-11 
13 1.67023e-10 1.25185e-10 -1.2037e-10 
17 2.10313e-10 4.15308e-11 1.30963e-10 
21 5.58763e-10 1.20845e-10 1.15011e-10 
25 5.76838e-10 1.24352e-10 -1.29478e-10 
29 2.73286e-10 6.32425e-11 -1.82339e-10 
33 2.3666e-10 -4.16961e-11 1.38193e-10 
37 5.04376e-10 -9.18656e-11 1.04989e-10 
41 4.84336e-10 -1.12757e-10 -9.6515e-11 
45 2.66767e-10 -5.98166e-11 -1.69325e-10 
49 1.51361e-10 -7.53543e-11 7.47922e-11 
53 2.27237e-10 -1.29619e-10 4.04316e-11 
57 2.10692e-10 -1.39046e-10 -4.2098e-11 
61 1.46866e-10 -1.02408e-10 -9.26559e-11 
65 7.6784e-11 1.04758e-10 8.67579e-11 
69 1.31841e-10 1.77904e-10 4.69972e-11 
73 1.60768e-10 2.09363e-10 -5.65783e-11 
77 1.05612e-10 1.18615e-10 -9.93965e-11 
81 1.8073e-11 7.01676e-11 4.62744e-11 
85 5.18398e-11 1.88213e-10 4.89328e-11 
89 5.50217e-11 1.79967e-10 -4.63205e-11 
93 3.3723e-11 1.18403e-10 -7.999e-11 
97 -1.38523e-11 6.67714e-11 4.03348e-11 
101 -1.36787e-11 7.07777e-11 1.72659e-11 
105 -1.13479e-11 9.92697e-11 -2.2049e-11 
109 -4.17608e-12 5.33218e-11 -3.26902e-11 
113 -1.10344e-11 1.86293e-11 1.01732e-11 
117 -9.58364e-12 1.47725e-11 4.0871e-12 
121 -1.34703e-11 1.80937e-11 -7.16025e-12 
125 -7.20323e-12 1.14985e-11 -7.43345e-12 
129 7.48653e-11 7.01917e-11 9.42986e-11 
133 1.00933e-10 3.48677e-11 1.41159e-10 
137 1.3633e-10 -3.65656e-11 1.75104e-10 
141 8.92691e-11 -7.71339e-11 9.0337e-11 
145 2.74246e-11 5.37103e-11 7.4164e-11 
149 4.63261e-11 5.83803e-11 1.96219e-10 
153 7.03231e-11 -6.34618e-11 2.41413e-10 
157 4.02575e-11 -9.98554e-11 1.15622e-10 
161 -5.92274e-12 3.56012e-11 6.10308e-11 
165 -9.37203e-12 1.3897e-11 6.06962e-11 
169 -1.47672e-11 -1.94178e-11 9.66649e-11 
173 -7.7224e-12 -3.2342e-11 4.17806e-11 
177 -4.8602e-12 5.15006e-12 1.28334e-11 
181 -8.51096e-12 2.46118e-12 1.20357e-11 
185 -1.42662e-11 -5.86143e-12 2.34042e-11 
189 -6.84361e-12 -5.73994e-12 1.05863e-11 
2 1.28551e-10 8.69667e-11 7.36363e-11 
6 1.91663e-10 1.31289e-10 4.52343e-11 
10 2.0565e-10 1.25077e-10 -3.71481e-11 
14 1.22474e-10 6.63952e-11 -6.39084e-11 
18 2.5633e-10 5.87728e-11 1.54646e-10 
22 5.03522e-10 1.12289e-10 1.00049e-10 
26 5.07565e-10 1.05187e-10 -1.11128e-10 
30 2.23436e-10 4.23876e-11 -1.20106e-10 
34 2.08729e-10 -5.32062e-11 1.39723e-10 
38 5.06994e-10 -1.04292e-10 1.05062e-10 
42 5.28521e-10 -1.11264e-10 -1.10488e-10 
46 1.98602e-10 -4.11931e-11 -1.34104e-10 
50 1.45482e-10 -1.03546e-10 1.17899e-10 
54 2.80193e-10 -2.11366e-10 6.07791e-11 
58 2.71955e-10 -1.64572e-10 -7.32739e-11 
62 1.18465e-10 -7.69386e-11 -8.91178e-11 
66 7.60763e-11 9.4993e-11 6.48085e-11 
70 1.27102e-10 1.75842e-10 3.41584e-11 
74 7.84163e-11 1.1937e-10 -2.09389e-11 
78 4.40598e-11 6.07954e-11 -4.06773e-11 
82 3.51045e-11 1.04803e-10 6.93949e-11 
86 7.36444e-11 2.32873e-10 4.60002e-11 
90 6.53335e-11 2.12158e-10 -5.27573e-11 
94 3.35754e-11 1.02258e-10 -6.58123e-11 
98 -9.04009e-12 5.565e-11 4.51839e-11 
102 -1.71216e-11 1.39805e-10 3.32119e-11 
106 -1.11773e-11 9.75797e-11 -2.56868e-11 
110 -1.0837e-11 5.34578e-11 -4.17647e-11 
114 -1.02144e-11 1.21129e-11 9.73064e-12 
118 -1.32635e-11 1.99234e-11 6.64437e-12 
122 -1.44259e-11 2.58127e-11 -1.01778e-11 
126 -1.24117e-11 2.95619e-11 -2.5463e-11 
130 8.89737e-11 6.1798e-11 9.55304e-11 
134 1.47262e-10 3.807e-11 1.82149e-10 
138 1.07985e-10 -2.22677e-11 1.48691e-10 
142 5.66082e-11 -5.07267e-11 7.36213e-11 
146 2.98012e-11 5.21135e-11 7.74434e-11 
150 6.51083e-11 4.08737e-11 2.10989e-10 
154 4.08418e-11 -3.31971e-11 1.49576e-10 
158 2.15947e-11 -4.28376e-11 6.84761e-11 
162 -3.55905e-12 3.6641e-11 4.86784e-11 
166 -1.51127e-11 2.63813e-11 1.14552e-10 
170 -1.47292e-11 -2.22506e-11 1.09749e-10 
174 -1.86201e-12 -2.79912e-11 3.58805e-11 
178 -1.21771e-11 1.23345e-11 1.70705e-11 
182 -1.09788e-11 7.45302e-12 1.74467e-11 
186 -1.40719e-11 -9.85991e-12 2.28815e-11 
190 -1.06956e-11 -1.90014e-11 2.08693e-11 
3 -8.51432e-12 5.20287e-12 7.5266e-12 
7 -9.30107e-12 6.44191e-12 2.13808e-12 
11 -9.51058e-12 8.92416e-12 -2.4629e-12 
15 -1.05198e-11 7.30851e-12 -9.80413e-12 
19 -1.5504e-12 1.14502e-12 2.52703e-12 
23 -9.27809e-12 2.37151e-12 1.55477e-12 
27 -1.3431e-11 6.65983e-12 -2.43696e-12 
31 -1.59148e-11 5.21444e-12 -1.31374e-11 
35 -6.13832e-12 -1.68628e-12 3.16355e-12 
39 -2.10225e-11 -2.92131e-12 7.0078e-12 
43 -1.59441e-11 -3.35874e-12 -4.78472e-12 
47 -9.62381e-12 -3.22265e-12 -9.4638e-12 
51 -2.04741e-12 -4.83458e-13 1.25437e-12 
55 -4.59764e-12 -3.86911e-12 -8.84836e-14 
59 -9.04711e-12 -8.37522e-12 -2.91556e-12 
63 -1.34799e-12 -2.36704e-12 -1.25379e-12 
67 7.20486e-11 -9.2593e-11 6.87705e-11 
71 1.54967e-10 -2.046e-10 5.89395e-11 
75 1.38042e-10 -1.82139e-10 -4.41477e-11 
79 8.29338e-11 -8.67814e-11 -6.76898e-11 
83 2.78217e-11 -7.91065e-11 5.91606e-11 
87 5.5705e-11 -1.99031e-10 4.72606e-11 
91 6.48873e-11 -2.07413e-10 -5.4882e-11 
95 5.58845e-11 -1.29343e-10 -9.6631e-11 
99 -5.91497e-12 -2.8725e-11 2.20683e-11 
103 -6.91369e-12 -8.78734e-11 1.73082e-11 
107 -1.75194e-11 -1.14454e-10 -2.1341e-11 
111 -1.01688e-11 -5.52828e-11 -3.72083e-11 
115 -6.67169e-12 -1.72599e-11 1.09811e-11 
119 -2.09891e-11 -3.39844e-11 7.65928e-12 
123 -1.07242e-11 -1.71832e-11 -4.14712e-12 
127 -1.09617e-11 -2.0207e-11 -1.04519e-11 
131 7.52926e-11 6.89179e-11 -8.89822e-11 
135 1.26263e-10 5.12389e-11 -1.73866e-10 
139 1.77164e-10 -4.83133e-11 -2.126e-10 
143 9.46165e-11 -8.97117e-11 -1.04316e-10 
147 2.00191e-11 5.60727e-11 -7.80079e-11 
151 4.8131e-11 5.04164e-11 -1.804e-10 
155 5.57718e-11 -5.38187e-11 -2.00725e-10 
159 3.40051e-11 -7.89449e-11 -1.04628e-10 
163 -5.84741e-12 1.93117e-11 -3.05113e-11 
167 -1.04169e-11 1.24365e-11 -8.09093e-11 
171 -9.57912e-12 -2.18124e-11 -8.96499e-11 
175 -1.00281e-11 -3.37167e-11 -6.16236e-11 
179 -1.06501e-11 1.13292e-11 -2.24151e-11 
183 -5.69326e-12 5.81756e-12 -1.38647e-11 
187 -1.92397e-11 -8.4861e-12 -3.75607e-11 
191 -7.81567e-12 -5.2409e-12 -1.3268e-11 
4 -7.3367e-12 7.01642e-12 6.81239e-12 
8 -1.31429e-11 1.21636e-11 4.44718e-12 
12 -8.36239e-12 6.00011e-12 -1.24162e-12 
16 -2.4267e-12 1.82461e-12 -2.33161e-12 
20 -6.68884e-12 1.33793e-12 4.95365e-12 
24 -1.14369e-11 2.92009e-12 3.15098e-12 
28 -1.26177e-11 4.0018e-12 -5.76876e-12 
32 -8.40483e-12 1.76438e-12 -4.8431e-12 
36 -1.55004e-11 4.11859e-13 1.46951e-11 
40 -1.74181e-11 -5.10387e-12 5.64597e-12 
44 -2.13736e-11 -7.02543e-12 -3.33108e-12 
48 -7.84068e-12 1.38693e-12 -4.52407e-12 
52 -1.17708e-11 -8.24789e-12 7.27483e-12 
56 -1.03848e-11 -8.45364e-12 2.40017e-12 
60 -3.0762e-12 -4.74899e-12 -1.94396e-12 
64 -6.02879e-12 -4.66577e-12 -3.89342e-12 
68 9.35794e-11 -1.09358e-10 6.84102e-11 
72 1.24502e-10 -1.69034e-10 2.95331e-11 
76 9.60489e-11 -1.27731e-10 -2.43657e-11 
80 5.73494e-11 -9.65241e-11 -5.44176e-11 
84 3.81031e-11 -1.19214e-10 7.75913e-11 
88 5.36561e-11 -1.77515e-10 3.85385e-11 
92 3.95154e-11 -1.60106e-10 -3.15103e-11 
96 2.71983e-11 -9.11971e-11 -5.58858e-11 
100 -1.09458e-11 -5.47866e-11 3.40035e-11 
104 -1.57271e-11 -1.09362e-10 2.59478e-11 
108 -2.19523e-11 -1.50189e-10 -4.03963e-11 
112 -1.08733e-11 -6.49599e-11 -4.48139e-11 
116 -1.24293e-11 -1.9085e-11 1.11253e-11 
120 -9.30415e-12 -2.19612e-11 4.2682e-12 
124 -1.23316e-11 -2.01982e-11 -4.48068e-12 
128 -1.20105e-11 -2.80879e-11 -2.43788e-11 
132 7.40671e-11 5.40147e-11 -8.45861e-11 
136 1.12335e-10 2.42053e-11 -1.32327e-10 
140 8.00841e-11 -2.36581e-11 -1.1129e-10 
144 4.97005e-11 -4.14002e-11 -8.33827e-11 
148 3.49584e-11 6.3335e-11 -1.08005e-10 
152 6.23061e-11 4.69173e-11 -2.10298e-10 
156 4.91739e-11 -3.07127e-11 -1.68806e-10 
160 2.36812e-11 -4.75168e-11 -7.88796e-11 
164 -1.04505e-11 4.01448e-11 -5.34857e-11 
168 -1.33638e-11 1.97803e-11 -8.4038e-11 
172 -1.92608e-11 -2.81869e-11 -1.2006e-10 
176 -3.762e-12 -3.42497e-11 -4.97283e-11 
180 -1.08653e-11 1.37823e-11 -1.97269e-11 
184 -1.90296e-11 8.30179e-12 -2.91105e-11 
188 -1.19139e-11 -6.18234e-12 -2.9332e-11 
192 -1.51375e-11 -1.83897e-11 -2.11956e-11 
