ITEM: TIMESTEP
3000
ITEM: NUMBER OF SURFS
192
ITEM: BOX BOUNDS oo rr rr
0 0.0005
0 0.0005
0 0.0005
ITEM: SURFS id f_f_drag_blocks[1] f_f_drag_blocks[2] f_f_drag_blocks[3] 
1 0 0 0 
5 0 0 0 
9 0 0 0 
13 0 0 0 
17 0 0 0 
21 0 0 0 
25 0 0 0 
29 0 0 0 
33 0 0 0 
37 0 0 0 
41 0 0 0 
45 0 0 0 
49 0 0 0 
53 0 0 0 
57 0 0 0 
61 0 0 0 
65 0 0 0 
69 0 0 0 
73 0 0 0 
77 0 0 0 
81 0 0 0 
85 0 0 0 
89 0 0 0 
93 0 0 0 
97 0 0 0 
101 0 0 0 
105 0 0 0 
109 0 0 0 
113 0 0 0 
117 0 0 0 
121 0 0 0 
125 0 0 0 
129 0 0 0 
133 0 0 0 
137 0 0 0 
141 0 0 0 
145 0 0 0 
149 0 0 0 
153 0 0 0 
157 0 0 0 
161 0 0 0 
165 0 0 0 
169 0 0 0 
173 0 0 0 
177 0 0 0 
181 0 0 0 
185 0 0 0 
189 0 0 0 
2 0 0 0 
6 0 0 0 
10 0 0 0 
14 0 0 0 
18 0 0 0 
22 0 0 0 
26 0 0 0 
30 0 0 0 
34 0 0 0 
38 0 0 0 
42 0 0 0 
46 0 0 0 
50 0 0 0 
54 0 0 0 
58 0 0 0 
62 0 0 0 
66 0 0 0 
70 0 0 0 
74 0 0 0 
78 0 0 0 
82 0 0 0 
86 0 0 0 
90 0 0 0 
94 0 0 0 
98 0 0 0 
102 0 0 0 
106 0 0 0 
110 0 0 0 
114 0 0 0 
118 0 0 0 
122 0 0 0 
126 0 0 0 
130 0 0 0 
134 0 0 0 
138 0 0 0 
142 0 0 0 
146 0 0 0 
150 0 0 0 
154 0 0 0 
158 0 0 0 
162 0 0 0 
166 0 0 0 
170 0 0 0 
174 0 0 0 
178 0 0 0 
182 0 0 0 
186 0 0 0 
190 0 0 0 
3 0 0 0 
7 0 0 0 
11 0 0 0 
15 0 0 0 
19 0 0 0 
23 0 0 0 
27 0 0 0 
31 0 0 0 
35 0 0 0 
39 0 0 0 
43 0 0 0 
47 0 0 0 
51 0 0 0 
55 0 0 0 
59 0 0 0 
63 0 0 0 
67 0 0 0 
71 0 0 0 
75 0 0 0 
79 0 0 0 
83 0 0 0 
87 0 0 0 
91 0 0 0 
95 0 0 0 
99 0 0 0 
103 0 0 0 
107 0 0 0 
111 0 0 0 
115 0 0 0 
119 0 0 0 
123 0 0 0 
127 0 0 0 
131 0 0 0 
135 0 0 0 
139 0 0 0 
143 0 0 0 
147 0 0 0 
151 0 0 0 
155 0 0 0 
159 0 0 0 
163 0 0 0 
167 0 0 0 
171 0 0 0 
175 0 0 0 
179 0 0 0 
183 0 0 0 
187 0 0 0 
191 0 0 0 
4 0 0 0 
8 0 0 0 
12 0 0 0 
16 0 0 0 
20 0 0 0 
24 0 0 0 
28 0 0 0 
32 0 0 0 
36 0 0 0 
40 0 0 0 
44 0 0 0 
48 0 0 0 
52 0 0 0 
56 0 0 0 
60 0 0 0 
64 0 0 0 
68 0 0 0 
72 0 0 0 
76 0 0 0 
80 0 0 0 
84 0 0 0 
88 0 0 0 
92 0 0 0 
96 0 0 0 
100 0 0 0 
104 0 0 0 
108 0 0 0 
112 0 0 0 
116 0 0 0 
120 0 0 0 
124 0 0 0 
128 0 0 0 
132 0 0 0 
136 0 0 0 
140 0 0 0 
144 0 0 0 
148 0 0 0 
152 0 0 0 
156 0 0 0 
160 0 0 0 
164 0 0 0 
168 0 0 0 
172 0 0 0 
176 0 0 0 
180 0 0 0 
184 0 0 0 
188 0 0 0 
192 0 0 0 
ITEM: TIMESTEP
4000
ITEM: NUMBER OF SURFS
192
ITEM: BOX BOUNDS oo rr rr
0 0.0005
0 0.0005
0 0.0005
ITEM: SURFS id f_f_drag_blocks[1] f_f_drag_blocks[2] f_f_drag_blocks[3] 
1 1.07994e-10 6.5588e-11 6.68604e-11 
5 2.17199e-10 1.20267e-10 6.12143e-11 
9 2.38528e-10 1.72168e-10 -4.90815e-11 
13 1.30034e-10 8.35857e-11 -8.19504e-11 
17 2.2178e-10 4.88543e-11 1.46683e-10 
21 5.30085e-10 1.00797e-10 1.40239e-10 
25 5.70288e-10 1.09873e-10 -1.24188e-10 
29 2.19672e-10 6.09724e-11 -1.68242e-10 
33 2.06268e-10 -4.01942e-11 1.19362e-10 
37 4.93496e-10 -9.16701e-11 1.05742e-10 
41 5.89203e-10 -1.44024e-10 -1.06537e-10 
45 2.16136e-10 -4.9946e-11 -1.28145e-10 
49 1.36452e-10 -6.62866e-11 7.31353e-11 
53 2.31999e-10 -1.36848e-10 3.48112e-11 
57 2.78706e-10 -1.77233e-10 -5.2798e-11 
61 9.9954e-11 -6.75773e-11 -5.87151e-11 
65 5.734e-11 8.6185e-11 6.2726e-11 
69 1.1695e-10 1.61043e-10 3.76852e-11 
73 2.03637e-10 2.45324e-10 -5.34766e-11 
77 9.36157e-11 9.75827e-11 -7.79668e-11 
81 2.41406e-11 7.56639e-11 5.54405e-11 
85 5.9457e-11 2.06569e-10 4.14093e-11 
89 7.85799e-11 2.43259e-10 -6.26357e-11 
93 3.38907e-11 1.06058e-10 -7.63394e-11 
97 -1.0054e-11 6.34969e-11 4.03009e-11 
101 -1.02366e-12 6.54201e-11 1.42519e-11 
105 -1.16924e-11 6.91724e-11 -1.66098e-11 
109 -1.11504e-11 4.27995e-11 -2.44433e-11 
113 -6.66294e-12 2.51772e-11 1.15055e-11 
117 -9.02267e-12 1.53907e-11 2.29626e-12 
121 -8.0763e-12 2.25735e-11 1.78327e-13 
125 -1.70249e-11 1.98953e-11 -1.38201e-11 
129 7.00994e-11 7.58004e-11 1.07254e-10 
133 8.62089e-11 4.36022e-11 1.30755e-10 
137 1.89103e-10 -6.16791e-11 2.50006e-10 
141 8.81767e-11 -6.37165e-11 8.20417e-11 
145 2.91394e-11 6.31432e-11 8.18063e-11 
149 6.19595e-11 5.1366e-11 2.19659e-10 
153 8.21371e-11 -5.39696e-11 2.36883e-10 
157 1.99222e-11 -3.8173e-11 5.45225e-11 
161 -9.75337e-12 4.91165e-11 7.44333e-11 
165 -1.00011e-11 3.10212e-11 1.38006e-10 
169 -1.7862e-11 -2.25134e-11 1.20881e-10 
173 -1.25157e-11 -4.46983e-11 6.55825e-11 
177 -3.55308e-12 5.38572e-12 1.09882e-11 
181 -3.65225e-12 -9.72999e-13 1.38816e-11 
185 -4.6884e-12 -2.69413e-12 8.32362e-12 
189 -8.1509e-12 -7.89326e-12 1.96581e-11 
2 9.46728e-11 7.00935e-11 5.74679e-11 
6 2.07668e-10 1.46086e-10 3.8218e-11 
10 2.09497e-10 1.19766e-10 -3.52705e-11 
14 1.24618e-10 7.83908e-11 -7.10084e-11 
18 2.84008e-10 5.56496e-11 1.8038e-10 
22 5.61419e-10 1.18265e-10 9.59002e-11 
26 4.53454e-10 9.60279e-11 -1.09688e-10 
30 2.39943e-10 4.54264e-11 -1.42162e-10 
34 2.8816e-10 -5.95955e-11 1.82751e-10 
38 5.44826e-10 -1.13248e-10 9.83211e-11 
42 5.45268e-10 -9.2974e-11 -1.21757e-10 
46 2.34495e-10 -4.15706e-11 -1.6547e-10 
50 1.11988e-10 -8.24084e-11 6.65248e-11 
54 2.75337e-10 -2.02949e-10 7.08535e-11 
58 2.3584e-10 -1.31755e-10 -5.65421e-11 
62 1.57863e-10 -1.06877e-10 -1.12615e-10 
66 6.32315e-11 7.16172e-11 5.1856e-11 
70 1.09477e-10 1.2468e-10 2.34618e-11 
74 7.45901e-11 1.27149e-10 -2.72212e-11 
78 3.60245e-11 5.16935e-11 -3.0147e-11 
82 4.058e-11 1.18032e-10 8.05034e-11 
86 6.81198e-11 2.21391e-10 5.60057e-11 
90 5.6694e-11 2.29468e-10 -5.34136e-11 
94 2.58481e-11 9.40428e-11 -6.99358e-11 
98 -1.44869e-11 6.49661e-11 4.48252e-11 
102 -1.38564e-11 7.02539e-11 2.16406e-11 
106 -9.21503e-12 6.6259e-11 -1.82802e-11 
110 -4.63661e-12 3.75317e-11 -2.8804e-11 
114 -5.57651e-12 6.96799e-12 6.37564e-12 
118 -1.40214e-11 2.45193e-11 2.08405e-12 
122 -3.06677e-11 5.26983e-11 -8.86991e-12 
126 -1.21296e-11 2.00534e-11 -1.52274e-11 
130 6.22849e-11 4.65759e-11 7.47677e-11 
134 1.3134e-10 3.71356e-11 1.84817e-10 
138 9.65213e-11 -3.29982e-11 1.28079e-10 
142 6.82201e-11 -6.0149e-11 1.11526e-10 
146 3.93743e-11 5.80706e-11 9.87172e-11 
150 8.09841e-11 5.4186e-11 2.46581e-10 
154 4.03506e-11 -2.1831e-11 1.4879e-10 
158 2.76506e-11 -5.70759e-11 8.65758e-11 
162 -6.59737e-12 3.36985e-11 5.02563e-11 
166 -9.77014e-12 2.66372e-11 7.66654e-11 
170 -1.03753e-11 -2.33771e-11 8.11825e-11 
174 -8.30715e-12 -4.92871e-11 4.99392e-11 
178 -3.55288e-12 8.0965e-12 1.0614e-11 
182 -1.22478e-11 2.15608e-12 1.75569e-11 
186 -1.94583e-11 -5.34993e-12 3.0612e-11 
190 -6.03044e-12 -7.00791e-12 9.98499e-12 
3 -1.24694e-11 1.08701e-11 1.02232e-11 
7 -9.87041e-12 2.56561e-12 1.96499e-12 
11 -1.42541e-11 1.73852e-11 -4.43589e-12 
15 -4.30858e-12 4.91212e-12 -5.62293e-12 
19 -1.52614e-12 -3.81559e-13 3.19362e-12 
23 -2.99897e-11 5.27558e-12 8.86726e-12 
27 -2.30315e-11 3.54041e-12 -5.5802e-12 
31 -9.71606e-12 2.92053e-12 -8.11553e-12 
35 -8.22033e-12 4.34723e-13 6.62209e-12 
39 -2.49634e-12 -9.0266e-13 -4.12308e-13 
43 -3.15093e-12 -2.86306e-12 -1.66376e-12 
47 -1.72665e-11 -6.51552e-13 -1.49037e-11 
51 0 0 0 
55 -8.02741e-12 -6.02509e-12 -3.24941e-13 
59 -8.15327e-12 -9.12203e-12 -2.22024e-12 
63 -1.07988e-11 -1.35756e-11 -1.50396e-11 
67 7.64767e-11 -1.04459e-10 8.13994e-11 
71 1.21556e-10 -1.80484e-10 4.16999e-11 
75 1.62205e-10 -2.07884e-10 -6.0881e-11 
79 1.25407e-10 -1.27994e-10 -1.21106e-10 
83 2.9053e-11 -1.16835e-10 8.10168e-11 
87 3.7018e-11 -1.85456e-10 4.03695e-11 
91 7.65528e-11 -2.54311e-10 -5.49194e-11 
95 3.27537e-11 -1.09536e-10 -8.02562e-11 
99 -9.72122e-13 -4.06589e-11 2.88237e-11 
103 -3.39132e-12 -6.90745e-11 1.3124e-11 
107 -1.34702e-11 -7.64856e-11 -1.82443e-11 
111 -7.21996e-12 -6.1547e-11 -3.93007e-11 
115 -9.28637e-12 -2.48327e-11 2.06723e-11 
119 -1.0028e-11 -2.03735e-11 7.36337e-12 
123 -1.65212e-11 -2.2622e-11 -4.06936e-12 
127 -7.32615e-12 -1.13596e-11 -9.27991e-12 
131 5.41093e-11 6.23732e-11 -7.155e-11 
135 1.20413e-10 3.4711e-11 -1.63388e-10 
139 1.86706e-10 -5.87844e-11 -2.26891e-10 
143 9.32622e-11 -9.32995e-11 -9.81587e-11 
147 2.93551e-11 6.50159e-11 -1.06582e-10 
151 4.10901e-11 5.18806e-11 -1.84036e-10 
155 7.01727e-11 -6.16161e-11 -2.67449e-10 
159 3.88345e-11 -8.16644e-11 -1.06505e-10 
163 -5.72401e-12 2.10334e-11 -2.84947e-11 
167 -1.93714e-11 7.20139e-12 -8.53361e-11 
171 -2.25224e-11 -3.32516e-11 -1.2399e-10 
175 -1.44537e-11 -4.49061e-11 -6.99259e-11 
179 -9.63338e-12 8.09163e-12 -1.66289e-11 
183 -7.36358e-12 6.48464e-13 -6.23047e-12 
187 -7.83023e-12 -5.91289e-12 -1.39004e-11 
191 -1.05748e-11 -7.01345e-12 -2.20142e-11 
4 -5.64607e-12 2.73821e-12 5.06015e-12 
8 -1.73162e-11 1.67953e-11 5.98641e-12 
12 -5.39928e-12 4.81136e-12 -3.16446e-12 
16 -4.97337e-12 3.77626e-12 -4.83961e-12 
20 -1.02114e-11 3.73644e-12 7.93105e-12 
24 -1.25627e-11 1.62549e-12 3.98441e-12 
28 -3.67297e-12 2.24577e-12 -4.87136e-13 
32 0 0 0 
36 -2.03252e-11 -9.08277e-12 1.33964e-11 
40 -3.31612e-12 3.26962e-13 2.64412e-12 
44 -1.21994e-11 5.34266e-13 -5.85514e-12 
48 -6.64639e-12 4.69759e-13 -6.216e-12 
52 -8.62176e-12 -9.71993e-12 8.03886e-12 
56 -9.75539e-12 -9.7137e-12 2.95502e-12 
60 -1.23892e-11 -6.08213e-12 4.52939e-14 
64 -2.01686e-11 -1.47603e-11 -1.23348e-11 
68 6.64774e-11 -7.41807e-11 4.68712e-11 
72 1.66583e-10 -2.04472e-10 3.95044e-11 
76 1.30833e-10 -1.92813e-10 -3.69103e-11 
80 5.0608e-11 -7.74853e-11 -5.02278e-11 
84 4.34193e-11 -1.22107e-10 7.79056e-11 
88 4.53234e-11 -1.46466e-10 3.02151e-11 
92 4.16897e-11 -1.57994e-10 -2.21951e-11 
96 2.80023e-11 -8.34091e-11 -4.84276e-11 
100 -5.52279e-12 -7.25415e-11 4.71086e-11 
104 -1.55425e-11 -1.16251e-10 4.19007e-11 
108 -5.37858e-12 -9.83688e-11 -3.17884e-11 
112 -9.56911e-12 -4.64587e-11 -3.80242e-11 
116 -2.16379e-11 -2.07557e-11 1.65778e-11 
120 -1.20966e-11 -2.13441e-11 3.17659e-12 
124 -1.26575e-11 -2.35774e-11 -3.23424e-12 
128 -7.72149e-12 -1.20799e-11 -1.28151e-11 
132 9.85362e-11 7.81586e-11 -9.99796e-11 
136 1.47587e-10 3.29881e-11 -1.74608e-10 
140 7.45202e-11 -2.67939e-11 -1.0287e-10 
144 4.57269e-11 -4.5526e-11 -8.27117e-11 
148 3.20203e-11 8.20442e-11 -1.16837e-10 
152 6.5671e-11 3.33643e-11 -2.0913e-10 
156 4.19543e-11 -3.01084e-11 -1.38388e-10 
160 2.74301e-11 -5.78207e-11 -7.55985e-11 
164 -4.16331e-12 3.57897e-11 -4.80209e-11 
168 -3.35187e-11 2.67767e-11 -1.26961e-10 
172 -1.53892e-11 -2.00634e-11 -1.02288e-10 
176 -3.61049e-12 -2.28021e-11 -3.74076e-11 
180 0 0 0 
184 -1.69964e-11 1.53698e-11 -3.97825e-11 
188 -7.82081e-12 -5.72391e-12 -1.72644e-11 
192 -6.01193e-12 -1.18973e-11 -1.32958e-11 
ITEM: TIMESTEP
5000
ITEM: NUMBER OF SURFS
192
ITEM: BOX BOUNDS oo rr rr
0 0.0005
0 0.0005
0 0.0005
ITEM: SURFS id f_f_drag_blocks[1] f_f_drag_blocks[2] f_f_drag_blocks[3] 
1 1.25072e-10 7.60177e-11 7.97546e-11 
5 2.27837e-10 1.52455e-10 6.54512e-11 
9 2.93151e-10 1.85808e-10 -5.85079e-11 
13 1.1272e-10 8.46857e-11 -8.17338e-11 
17 1.90555e-10 4.09042e-11 1.28362e-10 
21 4.53443e-10 8.35013e-11 8.80116e-11 
25 5.88958e-10 1.24897e-10 -1.41748e-10 
29 3.21641e-10 7.61978e-11 -2.01274e-10 
33 2.297e-10 -4.1086e-11 1.36753e-10 
37 4.69317e-10 -9.48352e-11 1.00665e-10 
41 5.29469e-10 -1.12586e-10 -1.20105e-10 
45 2.33024e-10 -7.28229e-11 -1.50214e-10 
49 9.98812e-11 -5.66962e-11 6.03288e-11 
53 1.94859e-10 -1.20374e-10 3.88309e-11 
57 2.16295e-10 -1.31634e-10 -4.51833e-11 
61 1.56778e-10 -1.10481e-10 -1.03157e-10 
65 5.36756e-11 6.93708e-11 5.73766e-11 
69 1.08228e-10 1.54965e-10 3.65078e-11 
73 1.37778e-10 1.79993e-10 -4.77596e-11 
77 8.8823e-11 7.81969e-11 -7.57352e-11 
81 2.27384e-11 1.12212e-10 8.06862e-11 
85 6.0455e-11 1.75187e-10 5.07658e-11 
89 8.95903e-11 2.94879e-10 -6.65123e-11 
93 2.54189e-11 9.27092e-11 -7.36277e-11 
97 -1.78385e-12 4.05901e-11 2.16696e-11 
101 -1.48395e-11 7.32561e-11 1.15282e-11 
105 -1.34094e-11 9.7973e-11 -2.35003e-11 
109 -2.13377e-11 7.2626e-11 -4.0524e-11 
113 -1.02533e-11 2.48794e-11 1.58716e-11 
117 -1.59232e-11 3.19009e-11 1.02633e-11 
121 -1.7563e-11 2.41155e-11 -2.32741e-12 
125 -7.39508e-12 7.48938e-12 -5.57539e-12 
129 8.4407e-11 9.92934e-11 1.21367e-10 
133 8.91918e-11 3.40472e-11 1.29968e-10 
137 1.59163e-10 -6.25303e-11 1.98224e-10 
141 8.56609e-11 -7.04016e-11 8.58361e-11 
145 2.99321e-11 4.66839e-11 7.84705e-11 
149 6.47137e-11 4.94809e-11 2.29948e-10 
153 8.14765e-11 -5.67693e-11 2.43677e-10 
157 4.62686e-11 -7.42703e-11 1.1064e-10 
161 -2.44242e-12 2.09359e-11 4.59114e-11 
165 -1.74541e-11 1.09451e-11 1.07435e-10 
169 -2.18562e-11 -2.09413e-11 1.03763e-10 
173 -1.35205e-11 -3.48914e-11 6.36323e-11 
177 -7.29342e-12 9.98223e-12 1.46608e-11 
181 -1.06391e-11 1.22547e-11 2.6211e-11 
185 -1.19572e-11 -8.74492e-12 2.90096e-11 
189 -4.66643e-12 -3.94881e-12 6.23765e-12 
2 1.06194e-10 7.36492e-11 6.88787e-11 
6 2.46806e-10 1.70472e-10 4.99605e-11 
10 1.64365e-10 9.45086e-11 -3.64336e-11 
14 1.16172e-10 6.45989e-11 -5.35141e-11 
18 2.46935e-10 5.89762e-11 1.40955e-10 
22 6.50336e-10 1.46603e-10 1.37324e-10 
26 4.68287e-10 7.96418e-11 -1.01486e-10 
30 2.14461e-10 4.04731e-11 -1.25397e-10 
34 2.1024e-10 -5.46794e-11 1.31915e-10 
38 5.65594e-10 -1.26229e-10 1.11787e-10 
42 5.07416e-10 -1.02345e-10 -1.37989e-10 
46 2.09336e-10 -3.57628e-11 -1.47982e-10 
50 1.09881e-10 -8.05383e-11 9.06572e-11 
54 2.96392e-10 -1.89963e-10 7.32475e-11 
58 2.47446e-10 -1.39193e-10 -5.17372e-11 
62 1.00255e-10 -5.46466e-11 -7.68941e-11 
66 7.15448e-11 9.08137e-11 5.41515e-11 
70 1.26108e-10 1.52527e-10 2.58532e-11 
74 7.98767e-11 1.03304e-10 -1.8595e-11 
78 3.88508e-11 6.30529e-11 -3.88149e-11 
82 5.01938e-11 1.41033e-10 9.03328e-11 
86 5.82713e-11 1.95909e-10 3.85247e-11 
90 4.71923e-11 1.65695e-10 -2.80976e-11 
94 3.66329e-11 1.17776e-10 -6.56535e-11 
98 -1.16271e-11 8.68359e-11 6.42834e-11 
102 -1.3098e-11 8.73395e-11 2.63699e-11 
106 -1.83371e-11 9.44612e-11 -1.90121e-11 
110 6.63526e-12 5.02785e-11 -3.67786e-11 
114 -8.27995e-12 1.78493e-11 1.50065e-11 
118 -2.33835e-11 3.71994e-11 1.43872e-11 
122 -1.78047e-11 3.71289e-11 -9.12201e-12 
126 -8.39803e-12 9.16262e-12 -8.7451e-12 
130 1.06915e-10 8.06597e-11 1.13631e-10 
134 7.00886e-11 1.45085e-11 9.34947e-11 
138 9.18771e-11 -7.40921e-12 1.28209e-10 
142 6.22768e-11 -6.42861e-11 9.98334e-11 
146 3.01256e-11 7.73879e-11 1.1567e-10 
150 6.12734e-11 3.57457e-11 1.85199e-10 
154 4.23637e-11 -2.27107e-11 1.54996e-10 
158 2.71386e-11 -3.70111e-11 6.19709e-11 
162 -9.70339e-12 3.74028e-11 5.26911e-11 
166 -8.79554e-12 2.70932e-11 1.06423e-10 
170 -1.08715e-11 -2.58932e-11 1.16744e-10 
174 -1.27041e-13 -3.19274e-11 4.10338e-11 
178 -1.24221e-11 1.64709e-11 1.95605e-11 
182 -1.67141e-11 7.67323e-12 2.97325e-11 
186 -1.15233e-11 -4.00352e-12 2.27091e-11 
190 -1.63211e-11 -1.61618e-11 2.55332e-11 
3 -1.8852e-12 2.05294e-12 7.76783e-13 
7 -6.70075e-12 6.8515e-12 3.92008e-12 
11 -2.03333e-11 1.01465e-11 -2.57692e-12 
15 -9.96006e-12 8.7655e-12 -9.20738e-12 
19 -8.86775e-12 1.25191e-12 9.48849e-12 
23 -2.53235e-11 6.52747e-12 4.8408e-12 
27 -7.07842e-12 2.0893e-12 -2.20994e-13 
31 -1.05663e-11 4.26512e-12 -1.32519e-11 
35 -8.52537e-12 5.17006e-13 3.40301e-12 
39 -1.06565e-12 -1.22305e-13 1.91652e-13 
43 -7.19768e-12 -3.95058e-12 -3.01411e-12 
47 -6.58094e-12 -5.43246e-12 -4.28647e-12 
51 -2.98481e-12 1.31916e-13 2.55654e-12 
55 -1.40536e-11 -7.24643e-12 4.09753e-12 
59 -6.67363e-12 -4.89525e-12 -1.4269e-12 
63 -1.3149e-11 -1.15795e-11 -8.27705e-12 
67 5.38176e-11 -8.16632e-11 5.92232e-11 
71 1.39627e-10 -1.79579e-10 4.54736e-11 
75 1.5774e-10 -1.99146e-10 -4.53057e-11 
79 6.53682e-11 -6.90125e-11 -6.05307e-11 
83 2.5991e-11 -7.45935e-11 5.69605e-11 
87 5.82878e-11 -2.12204e-10 4.60659e-11 
91 7.84768e-11 -2.21815e-10 -6.26758e-11 
95 4.13919e-11 -1.05803e-10 -7.92312e-11 
99 -4.07159e-12 -3.9341e-11 2.06159e-11 
103 -9.32407e-12 -8.80639e-11 1.96059e-11 
107 -1.57204e-11 -8.48478e-11 -2.01847e-11 
111 -1.13394e-11 -6.05366e-11 -3.46675e-11 
115 -2.92672e-12 -1.33487e-11 8.08477e-12 
119 -9.2622e-12 -2.07284e-11 6.52702e-12 
123 -1.42177e-11 -2.52309e-11 -4.82024e-12 
127 -8.89024e-12 -1.92183e-11 -1.23912e-11 
131 7.20194e-11 7.80158e-11 -1.18741e-10 
135 1.01779e-10 2.2562e-11 -1.24774e-10 
139 1.48193e-10 -4.60117e-11 -1.8603e-10 
143 9.52046e-11 -9.69852e-11 -1.07199e-10 
147 2.56837e-11 7.01023e-11 -9.62994e-11 
151 5.83776e-11 4.93545e-11 -2.16839e-10 
155 7.13401e-11 -5.27166e-11 -2.16863e-10 
159 6.07455e-11 -1.15156e-10 -1.59674e-10 
163 -6.87031e-12 2.73711e-11 -4.42065e-11 
167 -7.43408e-12 6.13377e-12 -9.1613e-11 
171 -1.2522e-11 -1.9675e-11 -6.48136e-11 
175 -6.37953e-12 -3.80646e-11 -4.73416e-11 
179 -1.55688e-12 3.34462e-12 -3.0508e-12 
183 -8.82763e-12 2.98022e-12 -1.88429e-11 
187 -9.37236e-12 -9.27934e-12 -1.70973e-11 
191 -1.01894e-11 -1.53956e-11 -2.2094e-11 
4 -6.04076e-12 7.28315e-12 4.44838e-12 
8 -1.77676e-12 1.5985e-12 2.38521e-13 
12 -6.10682e-12 5.54382e-12 -1.11184e-13 
16 -3.71075e-12 2.28365e-13 -2.89863e-12 
20 -2.00715e-11 7.01891e-12 1.35415e-11 
24 -9.68677e-12 3.64365e-12 1.50037e-12 
28 -3.99605e-12 -1.11793e-13 -1.61153e-12 
32 -7.75091e-12 3.96468e-12 -1.05761e-11 
36 -6.13942e-12 -8.75473e-13 -5.01106e-13 
40 -1.44515e-11 -9.02921e-12 3.37691e-13 
44 -1.78998e-11 1.5163e-12 -6.97522e-12 
48 -1.08689e-11 -4.17857e-12 -5.31977e-12 
52 -1.97671e-11 -1.4509e-11 1.55183e-11 
56 -1.86866e-11 -1.42567e-11 3.23012e-12 
60 -1.37922e-11 -1.12576e-11 -3.86183e-12 
64 -2.33991e-12 -4.37119e-12 -3.18781e-12 
68 8.476e-11 -9.96348e-11 6.13952e-11 
72 9.76019e-11 -1.35039e-10 2.06616e-11 
76 8.44285e-11 -1.19497e-10 -3.35776e-11 
80 4.61949e-11 -6.69382e-11 -4.49186e-11 
84 4.12661e-11 -1.35407e-10 8.01821e-11 
88 5.2573e-11 -1.63539e-10 4.78291e-11 
92 6.04074e-11 -2.16726e-10 -3.2145e-11 
96 2.43011e-11 -9.90079e-11 -7.28963e-11 
100 -5.7937e-12 -5.94569e-11 3.45977e-11 
104 -2.64317e-11 -1.08941e-10 2.58092e-11 
108 -1.21516e-11 -8.3603e-11 -1.77939e-11 
112 -5.72992e-12 -5.6057e-11 -4.92288e-11 
116 -1.17985e-11 -1.35257e-11 1.55625e-11 
120 -1.40026e-11 -2.41715e-11 8.17131e-12 
124 -1.1645e-11 -1.7105e-11 -3.76992e-12 
128 -1.32253e-11 -1.89447e-11 -1.0212e-11 
132 6.6908e-11 4.2134e-11 -7.09906e-11 
136 1.29975e-10 5.09721e-11 -1.74494e-10 
140 1.1095e-10 -2.98908e-11 -1.65575e-10 
144 7.68746e-11 -6.00847e-11 -9.94086e-11 
148 3.0939e-11 5.54549e-11 -8.72995e-11 
152 6.42901e-11 5.604e-11 -2.33422e-10 
156 4.40744e-11 -5.82803e-11 -1.89489e-10 
160 2.50504e-11 -5.31509e-11 -8.79541e-11 
164 -1.55745e-11 5.15061e-11 -5.98086e-11 
168 -2.58381e-11 2.42545e-11 -1.13024e-10 
172 -1.88015e-11 -3.21141e-11 -1.26633e-10 
176 -1.8625e-12 -3.74625e-11 -6.13892e-11 
180 -1.67521e-11 2.37126e-11 -2.30405e-11 
184 -1.0735e-11 3.47463e-12 -1.26028e-11 
188 -5.41382e-12 -6.52822e-12 -1.23016e-11 
192 -5.18135e-12 -1.26699e-11 -9.96047e-12 
