ITEM: TIMESTEP
2500
ITEM: NUMBER OF SURFS
192
ITEM: BOX BOUNDS oo rr rr
0 0.0005
0 0.0005
0 0.0005
ITEM: SURFS id f_f_drag_cumul[1] f_f_drag_cumul[2] f_f_drag_cumul[3] 
1 0 0 0 
5 0 0 0 
9 0 0 0 
13 0 0 0 
17 0 0 0 
21 0 0 0 
25 0 0 0 
29 0 0 0 
33 0 0 0 
37 0 0 0 
41 0 0 0 
45 0 0 0 
49 0 0 0 
53 0 0 0 
57 0 0 0 
61 0 0 0 
65 0 0 0 
69 0 0 0 
73 0 0 0 
77 0 0 0 
81 0 0 0 
85 0 0 0 
89 0 0 0 
93 0 0 0 
97 0 0 0 
101 0 0 0 
105 0 0 0 
109 0 0 0 
113 0 0 0 
117 0 0 0 
121 0 0 0 
125 0 0 0 
129 0 0 0 
133 0 0 0 
137 0 0 0 
141 0 0 0 
145 0 0 0 
149 0 0 0 
153 0 0 0 
157 0 0 0 
161 0 0 0 
165 0 0 0 
169 0 0 0 
173 0 0 0 
177 0 0 0 
181 0 0 0 
185 0 0 0 
189 0 0 0 
2 0 0 0 
6 0 0 0 
10 0 0 0 
14 0 0 0 
18 0 0 0 
22 0 0 0 
26 0 0 0 
30 0 0 0 
34 0 0 0 
38 0 0 0 
42 0 0 0 
46 0 0 0 
50 0 0 0 
54 0 0 0 
58 0 0 0 
62 0 0 0 
66 0 0 0 
70 0 0 0 
74 0 0 0 
78 0 0 0 
82 0 0 0 
86 0 0 0 
90 0 0 0 
94 0 0 0 
98 0 0 0 
102 0 0 0 
106 0 0 0 
110 0 0 0 
114 0 0 0 
118 0 0 0 
122 0 0 0 
126 0 0 0 
130 0 0 0 
134 0 0 0 
138 0 0 0 
142 0 0 0 
146 0 0 0 
150 0 0 0 
154 0 0 0 
158 0 0 0 
162 0 0 0 
166 0 0 0 
170 0 0 0 
174 0 0 0 
178 0 0 0 
182 0 0 0 
186 0 0 0 
190 0 0 0 
3 0 0 0 
7 0 0 0 
11 0 0 0 
15 0 0 0 
19 0 0 0 
23 0 0 0 
27 0 0 0 
31 0 0 0 
35 0 0 0 
39 0 0 0 
43 0 0 0 
47 0 0 0 
51 0 0 0 
55 0 0 0 
59 0 0 0 
63 0 0 0 
67 0 0 0 
71 0 0 0 
75 0 0 0 
79 0 0 0 
83 0 0 0 
87 0 0 0 
91 0 0 0 
95 0 0 0 
99 0 0 0 
103 0 0 0 
107 0 0 0 
111 0 0 0 
115 0 0 0 
119 0 0 0 
123 0 0 0 
127 0 0 0 
131 0 0 0 
135 0 0 0 
139 0 0 0 
143 0 0 0 
147 0 0 0 
151 0 0 0 
155 0 0 0 
159 0 0 0 
163 0 0 0 
167 0 0 0 
171 0 0 0 
175 0 0 0 
179 0 0 0 
183 0 0 0 
187 0 0 0 
191 0 0 0 
4 0 0 0 
8 0 0 0 
12 0 0 0 
16 0 0 0 
20 0 0 0 
24 0 0 0 
28 0 0 0 
32 0 0 0 
36 0 0 0 
40 0 0 0 
44 0 0 0 
48 0 0 0 
52 0 0 0 
56 0 0 0 
60 0 0 0 
64 0 0 0 
68 0 0 0 
72 0 0 0 
76 0 0 0 
80 0 0 0 
84 0 0 0 
88 0 0 0 
92 0 0 0 
96 0 0 0 
100 0 0 0 
104 0 0 0 
108 0 0 0 
112 0 0 0 
116 0 0 0 
120 0 0 0 
124 0 0 0 
128 0 0 0 
132 0 0 0 
136 0 0 0 
140 0 0 0 
144 0 0 0 
148 0 0 0 
152 0 0 0 
156 0 0 0 
160 0 0 0 
164 0 0 0 
168 0 0 0 
172 0 0 0 
176 0 0 0 
180 0 0 0 
184 0 0 0 
188 0 0 0 
192 0 0 0 
ITEM: TIMESTEP
5000
ITEM: NUMBER OF SURFS
192
ITEM: BOX BOUNDS oo rr rr
0 0.0005
0 0.0005
0 0.0005
ITEM: SURFS id f_f_drag_cumul[1] f_f_drag_cumul[2] f_f_drag_cumul[3] 
1 1.31749e-10 7.8501e-11 9.07165e-11 
5 2.58347e-10 1.85725e-10 8.42977e-11 
9 2.59042e-10 1.69415e-10 -7.36902e-11 
13 8.51045e-11 5.42614e-11 -5.84958e-11 
17 2.87123e-10 4.46582e-11 2.02371e-10 
21 4.30969e-10 6.78525e-11 9.61919e-11 
25 6.00417e-10 1.14576e-10 -1.50683e-10 
29 2.20925e-10 5.37204e-11 -1.46747e-10 
33 2.36714e-10 -5.0955e-11 1.51151e-10 
37 4.85777e-10 -7.76046e-11 9.83415e-11 
41 3.65871e-10 -1.01278e-10 -8.52069e-11 
45 2.69931e-10 -6.07373e-11 -1.6594e-10 
49 1.4666e-10 -8.80197e-11 6.63095e-11 
53 1.36951e-10 -8.29014e-11 2.09483e-11 
57 1.97552e-10 -1.1754e-10 -4.44797e-11 
61 1.51032e-10 -9.70619e-11 -7.62935e-11 
65 5.40494e-11 8.76441e-11 7.35371e-11 
69 1.62711e-10 2.38088e-10 6.48704e-11 
73 1.59758e-10 1.8615e-10 -3.51713e-11 
77 1.0377e-10 1.22288e-10 -8.27769e-11 
81 1.66617e-11 6.52177e-11 3.59869e-11 
85 2.6093e-11 1.00089e-10 3.08369e-11 
89 5.69231e-11 1.72275e-10 -4.36502e-11 
93 4.03167e-11 1.0033e-10 -7.39275e-11 
97 -9.50554e-12 6.6871e-11 3.32393e-11 
101 -1.419e-11 1.10383e-10 1.3555e-11 
105 -2.02023e-11 1.35106e-10 -1.50132e-11 
109 -2.1082e-12 5.20869e-11 -3.09675e-11 
113 -2.26671e-12 4.12573e-12 3.9641e-12 
117 -1.83781e-11 4.03533e-11 1.22177e-11 
121 -8.45797e-12 9.63206e-12 -3.50988e-12 
125 -6.50155e-12 7.99756e-12 -7.77385e-12 
129 5.63726e-11 7.37495e-11 9.26162e-11 
133 1.30145e-10 3.2505e-11 1.84793e-10 
137 1.44823e-10 -3.85352e-11 2.09363e-10 
141 7.15577e-11 -6.72974e-11 8.56253e-11 
145 1.3272e-11 5.3545e-11 7.51695e-11 
149 9.55007e-11 7.52039e-11 2.95338e-10 
153 7.96793e-11 -6.90031e-11 2.53379e-10 
157 5.19371e-11 -9.97581e-11 1.55455e-10 
161 -2.89861e-13 3.43024e-11 4.12769e-11 
165 2.16845e-12 3.04924e-11 1.28646e-10 
169 -1.17831e-11 -3.68423e-11 9.44531e-11 
173 -2.14543e-11 -4.3529e-11 8.25712e-11 
177 -2.50969e-12 3.57978e-12 5.26869e-12 
181 -1.23597e-11 1.65644e-13 3.79221e-11 
185 -1.62124e-11 1.94881e-12 2.17997e-11 
189 1.56668e-13 -5.0058e-12 6.49768e-12 
2 1.16089e-10 6.94694e-11 5.47419e-11 
6 1.93683e-10 1.11197e-10 3.55147e-11 
10 2.05472e-10 1.19426e-10 -6.09476e-11 
14 9.01036e-11 4.4839e-11 -4.50654e-11 
18 2.66476e-10 3.83368e-11 1.57299e-10 
22 5.58391e-10 1.23119e-10 1.33773e-10 
26 8.17286e-10 1.38737e-10 -1.77114e-10 
30 2.66935e-10 4.1928e-11 -1.53221e-10 
34 3.00052e-10 -7.10129e-11 1.80171e-10 
38 6.92993e-10 -1.37331e-10 1.66413e-10 
42 5.56218e-10 -8.95543e-11 -1.36811e-10 
46 1.89388e-10 -4.21679e-11 -1.2192e-10 
50 1.46584e-10 -1.16487e-10 1.11474e-10 
54 3.13597e-10 -2.05929e-10 7.73013e-11 
58 1.74136e-10 -1.05833e-10 -4.24396e-11 
62 8.34533e-11 -5.66413e-11 -5.93496e-11 
66 8.19379e-11 1.08601e-10 7.24208e-11 
70 8.22251e-11 1.08532e-10 1.97515e-11 
74 9.92635e-11 1.43562e-10 -3.75304e-11 
78 3.81645e-11 4.62196e-11 -2.49374e-11 
82 4.05453e-11 8.59685e-11 5.54888e-11 
86 9.78277e-11 2.83832e-10 5.82263e-11 
90 4.51923e-11 1.69214e-10 -2.93837e-11 
94 2.6828e-11 1.09685e-10 -5.95084e-11 
98 -7.79638e-12 1.59724e-11 2.43269e-11 
102 -9.25192e-12 1.24401e-10 1.78234e-11 
106 -1.5605e-11 7.14023e-11 -1.15091e-11 
110 -6.47944e-12 5.67941e-11 -3.02959e-11 
114 -1.3832e-11 1.71912e-11 1.24718e-11 
118 -1.15131e-11 3.04041e-11 4.77339e-12 
122 2.01689e-12 1.04809e-11 -3.67011e-12 
126 -1.80897e-11 3.02952e-11 -1.94524e-11 
130 1.43737e-10 1.0862e-10 1.71922e-10 
134 9.28775e-11 3.23227e-11 1.10593e-10 
138 1.75084e-10 -5.50718e-11 2.06378e-10 
142 5.93726e-11 -4.59581e-11 8.52206e-11 
146 4.36435e-11 7.63733e-11 1.17805e-10 
150 6.73322e-11 5.45589e-11 1.98934e-10 
154 2.69872e-11 -2.85505e-11 1.26779e-10 
158 3.99588e-11 -7.88275e-11 1.25152e-10 
162 -2.09716e-11 5.32419e-11 7.54871e-11 
166 -1.856e-11 3.51842e-11 1.4803e-10 
170 -6.50848e-12 -6.98738e-12 7.99121e-11 
174 -6.44292e-12 -4.71059e-11 5.19413e-11 
178 -2.33031e-11 2.38554e-11 2.65401e-11 
182 -1.28215e-11 4.45407e-12 1.46583e-11 
186 -2.00352e-12 8.89937e-13 1.01846e-11 
190 -8.85143e-12 -1.5743e-11 1.90197e-11 
3 -2.4508e-11 1.32195e-11 1.33609e-11 
7 -1.72461e-11 1.97544e-11 1.62471e-11 
11 -6.16623e-12 5.8106e-12 -1.9653e-12 
15 -1.08139e-11 9.15556e-12 -1.07892e-11 
19 0 0 0 
23 -7.51222e-12 4.20887e-12 1.83284e-12 
27 -7.49966e-12 3.69252e-12 7.86132e-13 
31 -4.79392e-12 2.42339e-12 -2.39024e-12 
35 -7.57772e-12 -1.83921e-12 8.82679e-12 
39 0 0 0 
43 -1.31581e-11 -2.43115e-12 -1.14555e-13 
47 0 0 0 
51 0 0 0 
55 -6.79119e-12 -4.27358e-12 -3.53082e-13 
59 -8.67906e-12 -3.68947e-12 1.18268e-12 
63 -1.15907e-12 -2.59489e-13 -2.58058e-12 
67 4.90788e-11 -7.73701e-11 5.88908e-11 
71 1.76708e-10 -2.21345e-10 3.72645e-11 
75 2.28417e-10 -2.77106e-10 -7.10779e-11 
79 6.23101e-11 -8.61838e-11 -6.1968e-11 
83 2.42871e-11 -8.6165e-11 5.71924e-11 
87 2.85666e-11 -1.37015e-10 2.7908e-11 
91 7.58014e-11 -2.18251e-10 -5.48664e-11 
95 4.89185e-11 -1.22185e-10 -9.92123e-11 
99 4.83647e-12 -2.00992e-11 8.93114e-12 
103 6.17106e-13 -4.72932e-11 1.23302e-11 
107 -5.74475e-12 -1.13567e-10 -2.92326e-11 
111 -1.01766e-11 -9.11752e-11 -5.65787e-11 
115 -8.92382e-12 -8.29305e-12 4.27436e-12 
119 -8.24262e-12 -1.53316e-11 4.07287e-13 
123 -9.64982e-12 -2.81113e-11 -4.96106e-12 
127 9.12397e-13 -7.21897e-12 -4.12513e-12 
131 4.28786e-11 4.18771e-11 -5.90832e-11 
135 1.36572e-10 5.48032e-11 -1.75256e-10 
139 1.41835e-10 -4.16083e-11 -1.59854e-10 
143 1.00213e-10 -9.54774e-11 -1.14914e-10 
147 1.92875e-11 5.80951e-11 -6.93755e-11 
151 5.2717e-11 4.40366e-11 -2.19417e-10 
155 5.70966e-11 -2.4676e-11 -1.75794e-10 
159 2.58859e-11 -5.5949e-11 -7.1833e-11 
163 -2.55675e-12 1.96291e-11 -4.63691e-11 
167 -1.98506e-11 2.54609e-11 -9.81514e-11 
171 -1.65674e-12 -2.61737e-11 -8.01984e-11 
175 -1.89951e-11 -3.69673e-11 -4.95528e-11 
179 -3.25162e-12 1.05537e-11 -1.34577e-11 
183 -6.43641e-12 3.75301e-12 -1.39589e-11 
187 -1.54345e-11 -1.06262e-11 -2.70799e-11 
191 -1.38963e-11 -1.898e-11 -2.17659e-11 
4 -1.40708e-11 1.45824e-11 1.19296e-11 
8 -1.02891e-11 3.97164e-12 7.92674e-12 
12 -2.9166e-11 1.95583e-11 -1.08934e-11 
16 -8.44621e-12 8.47657e-12 -3.7884e-12 
20 -5.19269e-12 4.36016e-14 2.12469e-12 
24 0 0 0 
28 -1.10817e-11 1.2139e-12 -5.65798e-12 
32 -1.3707e-11 3.1503e-12 -7.98075e-12 
36 -7.1824e-12 -3.15957e-12 7.87533e-12 
40 -1.49181e-11 -1.76935e-12 1.61066e-12 
44 0 0 0 
48 -2.29638e-12 -2.47209e-12 -2.69904e-12 
52 -2.19632e-11 -2.01709e-11 1.96935e-11 
56 -3.76246e-12 -3.05692e-12 3.60116e-13 
60 -1.46602e-11 -9.52245e-12 -1.9996e-12 
64 0 0 0 
68 8.69421e-11 -8.60011e-11 6.13174e-11 
72 1.34654e-10 -1.65192e-10 3.39113e-11 
76 1.43652e-10 -2.116e-10 -4.33833e-11 
80 3.62282e-11 -4.71482e-11 -3.03228e-11 
84 4.35337e-11 -1.50179e-10 8.64477e-11 
88 7.43913e-11 -2.14971e-10 4.58705e-11 
92 5.88204e-11 -1.83898e-10 -2.63692e-11 
96 2.7014e-11 -9.72338e-11 -5.21672e-11 
100 -1.30703e-11 -9.12653e-11 4.88872e-11 
104 -3.82196e-13 -7.55368e-11 4.05857e-12 
108 -1.92186e-11 -1.36928e-10 -3.28709e-11 
112 -5.68856e-12 -2.44098e-11 -1.40874e-11 
116 -3.68556e-12 -6.58792e-12 5.03844e-12 
120 -1.28601e-11 -2.07455e-11 1.24624e-12 
124 -2.12345e-11 -4.7417e-11 -4.39539e-12 
128 -9.92332e-12 -2.21496e-11 -2.04561e-11 
132 1.30316e-10 1.00487e-10 -1.55686e-10 
136 1.76143e-10 3.54507e-11 -2.03909e-10 
140 1.12963e-10 -2.63996e-11 -1.50352e-10 
144 2.697e-11 -1.92837e-11 -5.36267e-11 
148 3.52877e-11 5.36414e-11 -1.02495e-10 
152 4.29368e-11 3.65457e-11 -1.51115e-10 
156 6.83975e-11 -3.41167e-11 -2.16734e-10 
160 1.57014e-11 -7.40645e-11 -1.24709e-10 
164 -1.88174e-11 5.60131e-11 -6.73076e-11 
168 -1.61389e-11 2.30147e-11 -1.0021e-10 
172 -1.00766e-11 -1.61927e-11 -6.8404e-11 
176 -1.17239e-11 -4.90713e-11 -7.09242e-11 
180 -2.01879e-11 2.82987e-11 -2.37103e-11 
184 -1.95738e-11 8.72256e-12 -3.69153e-11 
188 -9.44583e-12 -6.15848e-12 -2.4804e-11 
192 -1.6638e-12 -1.15902e-11 -8.6464e-12 
