ITEM: TIMESTEP
3000
ITEM: NUMBER OF SURFS
192
ITEM: BOX BOUNDS oo rr rr
0 0.0005
0 0.0005
0 0.0005
ITEM: SURFS id f_f_drag_blocks[1] f_f_drag_blocks[2] f_f_drag_blocks[3] 
1 0 0 0 
5 0 0 0 
9 0 0 0 
13 0 0 0 
17 0 0 0 
21 0 0 0 
25 0 0 0 
29 0 0 0 
33 0 0 0 
37 0 0 0 
41 0 0 0 
45 0 0 0 
49 0 0 0 
53 0 0 0 
57 0 0 0 
61 0 0 0 
65 0 0 0 
69 0 0 0 
73 0 0 0 
77 0 0 0 
81 0 0 0 
85 0 0 0 
89 0 0 0 
93 0 0 0 
97 0 0 0 
101 0 0 0 
105 0 0 0 
109 0 0 0 
113 0 0 0 
117 0 0 0 
121 0 0 0 
125 0 0 0 
129 0 0 0 
133 0 0 0 
137 0 0 0 
141 0 0 0 
145 0 0 0 
149 0 0 0 
153 0 0 0 
157 0 0 0 
161 0 0 0 
165 0 0 0 
169 0 0 0 
173 0 0 0 
177 0 0 0 
181 0 0 0 
185 0 0 0 
189 0 0 0 
2 0 0 0 
6 0 0 0 
10 0 0 0 
14 0 0 0 
18 0 0 0 
22 0 0 0 
26 0 0 0 
30 0 0 0 
34 0 0 0 
38 0 0 0 
42 0 0 0 
46 0 0 0 
50 0 0 0 
54 0 0 0 
58 0 0 0 
62 0 0 0 
66 0 0 0 
70 0 0 0 
74 0 0 0 
78 0 0 0 
82 0 0 0 
86 0 0 0 
90 0 0 0 
94 0 0 0 
98 0 0 0 
102 0 0 0 
106 0 0 0 
110 0 0 0 
114 0 0 0 
118 0 0 0 
122 0 0 0 
126 0 0 0 
130 0 0 0 
134 0 0 0 
138 0 0 0 
142 0 0 0 
146 0 0 0 
150 0 0 0 
154 0 0 0 
158 0 0 0 
162 0 0 0 
166 0 0 0 
170 0 0 0 
174 0 0 0 
178 0 0 0 
182 0 0 0 
186 0 0 0 
190 0 0 0 
3 0 0 0 
7 0 0 0 
11 0 0 0 
15 0 0 0 
19 0 0 0 
23 0 0 0 
27 0 0 0 
31 0 0 0 
35 0 0 0 
39 0 0 0 
43 0 0 0 
47 0 0 0 
51 0 0 0 
55 0 0 0 
59 0 0 0 
63 0 0 0 
67 0 0 0 
71 0 0 0 
75 0 0 0 
79 0 0 0 
83 0 0 0 
87 0 0 0 
91 0 0 0 
95 0 0 0 
99 0 0 0 
103 0 0 0 
107 0 0 0 
111 0 0 0 
115 0 0 0 
119 0 0 0 
123 0 0 0 
127 0 0 0 
131 0 0 0 
135 0 0 0 
139 0 0 0 
143 0 0 0 
147 0 0 0 
151 0 0 0 
155 0 0 0 
159 0 0 0 
163 0 0 0 
167 0 0 0 
171 0 0 0 
175 0 0 0 
179 0 0 0 
183 0 0 0 
187 0 0 0 
191 0 0 0 
4 0 0 0 
8 0 0 0 
12 0 0 0 
16 0 0 0 
20 0 0 0 
24 0 0 0 
28 0 0 0 
32 0 0 0 
36 0 0 0 
40 0 0 0 
44 0 0 0 
48 0 0 0 
52 0 0 0 
56 0 0 0 
60 0 0 0 
64 0 0 0 
68 0 0 0 
72 0 0 0 
76 0 0 0 
80 0 0 0 
84 0 0 0 
88 0 0 0 
92 0 0 0 
96 0 0 0 
100 0 0 0 
104 0 0 0 
108 0 0 0 
112 0 0 0 
116 0 0 0 
120 0 0 0 
124 0 0 0 
128 0 0 0 
132 0 0 0 
136 0 0 0 
140 0 0 0 
144 0 0 0 
148 0 0 0 
152 0 0 0 
156 0 0 0 
160 0 0 0 
164 0 0 0 
168 0 0 0 
172 0 0 0 
176 0 0 0 
180 0 0 0 
184 0 0 0 
188 0 0 0 
192 0 0 0 
ITEM: TIMESTEP
4000
ITEM: NUMBER OF SURFS
192
ITEM: BOX BOUNDS oo rr rr
0 0.0005
0 0.0005
0 0.0005
ITEM: SURFS id f_f_drag_blocks[1] f_f_drag_blocks[2] f_f_drag_blocks[3] 
1 1.44132e-10 1.02657e-10 9.23085e-11 
5 2.51348e-10 1.46958e-10 4.79689e-11 
9 3.45035e-10 2.61981e-10 -7.74577e-11 
13 1.51662e-10 1.06426e-10 -1.05128e-10 
17 2.08982e-10 4.49524e-11 1.6683e-10 
21 4.86446e-10 8.61613e-11 9.10911e-11 
25 6.71899e-10 1.24926e-10 -1.45587e-10 
29 2.59826e-10 5.30112e-11 -1.50157e-10 
33 1.21595e-10 -3.16371e-11 6.97617e-11 
37 3.65283e-10 -1.06116e-10 1.09608e-10 
41 5.9469e-10 -9.20638e-11 -1.3345e-10 
45 2.61709e-10 -4.75082e-11 -1.3597e-10 
49 2.29411e-10 -1.1747e-10 1.23374e-10 
53 2.42038e-10 -1.6301e-10 3.76121e-11 
57 2.40941e-10 -1.3142e-10 -4.20066e-11 
61 8.78906e-11 -7.19755e-11 -7.56016e-11 
65 8.765e-11 1.42571e-10 8.68614e-11 
69 8.69846e-11 1.17307e-10 3.57467e-11 
73 1.08427e-10 1.58786e-10 -3.81152e-11 
77 9.62663e-11 1.17105e-10 -1.0037e-10 
81 4.57967e-12 4.80698e-11 4.63475e-11 
85 4.69595e-11 2.21803e-10 3.87025e-11 
89 7.88148e-11 3.07706e-10 -9.33986e-11 
93 4.09731e-11 1.88188e-10 -1.27006e-10 
97 -1.60516e-11 7.08842e-11 2.07572e-11 
101 -7.01271e-12 5.34305e-11 1.08231e-11 
105 -1.5705e-11 1.43839e-10 -2.2725e-11 
109 5.28968e-14 4.29797e-11 -3.44923e-11 
113 -6.3084e-12 3.61527e-11 1.48532e-11 
117 -8.82709e-12 1.40406e-11 4.99501e-12 
121 -1.53055e-11 8.97209e-12 3.09772e-12 
125 -1.82807e-11 1.4365e-11 -9.10092e-12 
129 6.43045e-11 6.6263e-11 9.3656e-11 
133 1.32497e-10 5.9564e-11 1.73985e-10 
137 1.4048e-10 -6.20557e-11 1.89527e-10 
141 8.27716e-11 -6.51422e-11 8.64584e-11 
145 2.05376e-11 2.45317e-11 4.98452e-11 
149 6.35381e-11 6.73712e-11 2.6375e-10 
153 5.01039e-11 -3.61215e-11 1.55124e-10 
157 2.15542e-11 -5.80673e-11 7.06901e-11 
161 -4.62806e-12 4.20449e-12 6.39007e-12 
165 -8.16819e-12 2.28881e-11 6.38289e-11 
169 -1.06482e-11 -1.38755e-11 7.22077e-11 
173 5.17341e-13 -1.23422e-11 4.95568e-11 
177 -1.09728e-11 1.91372e-11 2.23742e-11 
181 -3.21615e-12 2.02732e-12 7.53373e-12 
185 -2.28311e-11 -6.31387e-12 3.16011e-11 
189 -6.08679e-12 -8.35642e-12 1.257e-11 
2 1.91216e-10 1.38916e-10 1.15245e-10 
6 2.23543e-10 1.64509e-10 3.44892e-11 
10 1.76128e-10 9.10827e-11 -2.20833e-11 
14 1.12547e-10 5.50655e-11 -8.19184e-11 
18 1.97791e-10 7.6929e-11 1.11417e-10 
22 4.32829e-10 7.48484e-11 8.43601e-11 
26 4.97474e-10 1.05704e-10 -1.18801e-10 
30 2.55737e-10 4.59342e-11 -1.46292e-10 
34 2.6195e-10 -8.03471e-11 1.80273e-10 
38 5.39137e-10 -9.95394e-11 1.11521e-10 
42 4.69886e-10 -9.55228e-11 -9.90804e-11 
46 2.19133e-10 -3.39584e-11 -1.39391e-10 
50 1.57069e-10 -1.21239e-10 1.27766e-10 
54 1.44377e-10 -1.25035e-10 1.02363e-11 
58 2.7281e-10 -1.71446e-10 -9.48716e-11 
62 1.03384e-10 -6.18491e-11 -6.17655e-11 
66 1.6009e-10 2.1047e-10 1.44658e-10 
70 1.15579e-10 1.47832e-10 3.08806e-11 
74 7.49175e-11 1.28393e-10 -1.53404e-11 
78 5.10335e-11 6.53244e-11 -3.45037e-11 
82 4.65597e-11 1.07236e-10 5.97989e-11 
86 4.9085e-11 1.6856e-10 4.73717e-11 
90 3.50727e-11 1.5135e-10 -2.78075e-11 
94 2.84423e-11 1.46324e-10 -7.99547e-11 
98 3.30013e-12 4.81066e-11 2.81931e-11 
102 -1.81602e-11 5.49694e-11 1.19709e-11 
106 -2.28111e-11 1.54835e-10 -3.70107e-11 
110 -1.45589e-12 3.70881e-11 -3.00572e-11 
114 -2.80658e-11 5.11925e-11 3.07038e-11 
118 -3.81474e-12 2.21059e-11 -5.29465e-12 
122 -3.72052e-12 1.01708e-11 -1.5513e-12 
126 2.80592e-12 1.30506e-11 -8.24033e-12 
130 9.9374e-11 6.65768e-11 1.32504e-10 
134 1.00663e-10 1.26921e-11 1.37368e-10 
138 1.00676e-10 -4.16116e-11 1.55824e-10 
142 1.75737e-11 -1.15686e-11 2.63989e-11 
146 2.61481e-11 5.35561e-11 8.52283e-11 
150 5.26073e-11 2.83265e-11 1.43372e-10 
154 6.50709e-11 -5.47313e-11 1.6095e-10 
158 1.60516e-11 -4.75445e-11 7.94035e-11 
162 -4.64845e-12 5.1456e-11 7.59352e-11 
166 -5.34571e-12 6.53944e-12 5.31958e-11 
170 -3.17941e-12 -2.18082e-11 1.21122e-10 
174 -5.87029e-13 -1.50579e-11 1.60554e-11 
178 -1.48916e-11 2.19667e-11 1.95699e-11 
182 -2.0028e-11 1.03347e-11 2.00065e-11 
186 -6.56518e-12 -4.50104e-12 5.95252e-12 
190 0 0 0 
3 0 0 0 
7 0 0 0 
11 -2.70126e-11 2.2554e-11 -5.88532e-12 
15 -4.94561e-12 8.63414e-12 -4.80993e-12 
19 -2.77949e-12 -2.615e-13 6.1114e-12 
23 -2.19683e-11 8.80911e-12 2.28491e-12 
27 -3.0427e-11 9.86523e-12 -1.49724e-11 
31 7.08257e-14 1.42134e-12 -3.56731e-12 
35 -1.30566e-11 -3.56011e-12 7.46367e-12 
39 -9.1273e-12 -5.84257e-12 3.4068e-12 
43 -1.25639e-11 -6.60979e-12 -4.22492e-12 
47 -1.90341e-11 -3.87458e-12 -1.22181e-11 
51 -7.75863e-12 -3.05763e-12 2.35823e-12 
55 -7.98199e-12 -2.98707e-12 3.65161e-12 
59 -8.43374e-12 -5.53626e-12 -7.0632e-13 
63 -8.24101e-12 -7.64839e-12 -1.0511e-11 
67 6.25185e-11 -9.65491e-11 7.47754e-11 
71 1.74626e-10 -2.52223e-10 7.2997e-11 
75 1.98405e-10 -2.77333e-10 -6.99513e-11 
79 9.29318e-11 -8.70444e-11 -7.54834e-11 
83 5.19532e-11 -1.21727e-10 9.44013e-11 
87 6.44333e-11 -2.81505e-10 6.28822e-11 
91 7.03352e-11 -1.99083e-10 -5.06525e-11 
95 2.9591e-11 -5.49714e-11 -4.38874e-11 
99 -1.43806e-11 -9.67631e-11 6.13301e-11 
103 -1.18508e-11 -1.02259e-10 1.10497e-11 
107 -2.21608e-11 -1.13689e-10 -3.54356e-11 
111 -1.37786e-11 -3.58473e-11 -2.7441e-11 
115 -4.7446e-12 -2.70716e-11 2.27837e-11 
119 -1.6187e-11 -2.85174e-11 5.48761e-12 
123 -7.75959e-12 -1.19642e-11 7.65764e-13 
127 -8.27069e-12 -7.00186e-12 -5.36755e-12 
131 7.5035e-11 8.67531e-11 -1.04647e-10 
135 1.4964e-10 8.56831e-11 -2.22155e-10 
139 1.45424e-10 -5.31514e-11 -1.80067e-10 
143 5.11343e-11 -5.99428e-11 -7.36805e-11 
147 1.73798e-11 6.23173e-11 -7.57102e-11 
151 5.62759e-11 5.75201e-11 -2.82079e-10 
155 8.1832e-11 -6.90317e-11 -2.93997e-10 
159 2.24172e-11 -6.46869e-11 -9.81e-11 
163 4.91223e-12 4.05624e-11 -6.14123e-11 
167 -4.12439e-12 8.37641e-12 -5.45895e-11 
171 -1.79465e-11 -1.64362e-11 -7.91614e-11 
175 3.50554e-12 -2.44239e-11 -3.94996e-11 
179 -5.41459e-12 1.25656e-11 -1.45311e-11 
183 -3.48588e-12 3.25282e-12 -4.02641e-12 
187 -1.26612e-11 -6.50307e-12 -1.69751e-11 
191 -2.07812e-11 -2.12105e-11 -3.9643e-11 
4 -1.52014e-11 5.91463e-12 1.11498e-11 
8 0 0 0 
12 -4.35297e-12 3.75673e-13 -7.27525e-13 
16 -2.0231e-11 9.8118e-12 -1.37113e-11 
20 -2.66862e-12 1.35366e-12 3.04579e-12 
24 -1.98787e-11 1.1606e-11 1.02402e-11 
28 -1.40504e-11 9.85057e-12 -2.47788e-12 
32 -1.85182e-11 3.00999e-12 -1.11079e-11 
36 -1.49507e-11 -4.47598e-12 1.25023e-11 
40 -1.59553e-11 -2.26362e-12 5.904e-12 
44 0 0 0 
48 -1.56285e-11 -4.98625e-12 -2.04451e-11 
52 -1.95424e-11 -2.04044e-11 2.18901e-11 
56 -6.8231e-12 -7.30274e-12 3.95902e-12 
60 -2.21515e-11 -9.36764e-12 -9.36466e-12 
64 -9.95505e-12 -1.09186e-11 -6.00602e-12 
68 7.7049e-11 -1.04293e-10 7.29931e-11 
72 1.93056e-10 -2.5397e-10 4.34377e-11 
76 1.14588e-10 -1.72461e-10 -4.67496e-11 
80 5.90516e-11 -1.01274e-10 -5.98992e-11 
84 2.55851e-11 -9.40571e-11 4.02099e-11 
88 6.42028e-11 -1.95801e-10 4.16312e-11 
92 7.46855e-11 -2.09694e-10 -4.85279e-11 
96 1.47443e-11 -4.5603e-11 -2.51083e-11 
100 -2.4292e-11 -7.38973e-11 4.77015e-11 
104 -8.13001e-12 -8.37287e-11 2.57729e-11 
108 -2.02889e-11 -9.83659e-11 -2.34562e-11 
112 -3.20428e-12 -3.07897e-11 -1.96791e-11 
116 -1.24335e-11 -8.74137e-12 1.00495e-12 
120 -1.38314e-11 -1.76366e-11 -3.00753e-13 
124 -1.30193e-11 -1.27846e-11 -2.54334e-12 
128 0 0 0 
132 5.03626e-11 3.74391e-11 -6.40842e-11 
136 1.01476e-10 2.93015e-11 -1.25866e-10 
140 1.19144e-10 -2.60351e-11 -1.63919e-10 
144 3.99849e-11 -3.75397e-11 -6.40639e-11 
148 3.96786e-11 6.69538e-11 -1.01031e-10 
152 3.52144e-11 2.02007e-11 -1.14124e-10 
156 5.17116e-11 -3.63155e-11 -1.10325e-10 
160 3.0905e-11 -6.28173e-11 -1.00425e-10 
164 -5.56745e-12 4.85606e-11 -6.09815e-11 
168 -2.62873e-11 1.83058e-11 -1.03688e-10 
172 -2.13427e-11 -2.45604e-11 -1.1272e-10 
176 -2.14628e-11 -5.83122e-11 -7.14373e-11 
180 -1.51564e-11 2.17938e-11 -1.80589e-11 
184 -7.33449e-12 1.22968e-11 -2.05787e-11 
188 -3.03906e-11 -2.98313e-12 -5.01428e-11 
192 -1.34905e-11 -3.09173e-11 -3.4429e-11 
ITEM: TIMESTEP
5000
ITEM: NUMBER OF SURFS
192
ITEM: BOX BOUNDS oo rr rr
0 0.0005
0 0.0005
0 0.0005
ITEM: SURFS id f_f_drag_blocks[1] f_f_drag_blocks[2] f_f_drag_blocks[3] 
1 1.13122e-10 7.31643e-11 8.01108e-11 
5 3.82938e-10 2.2544e-10 7.58631e-11 
9 2.16444e-10 1.39122e-10 -3.98176e-11 
13 1.09218e-10 6.89618e-11 -6.85773e-11 
17 2.52239e-10 2.62618e-11 1.50826e-10 
21 4.94826e-10 9.05316e-11 1.18066e-10 
25 6.02541e-10 1.45077e-10 -1.58225e-10 
29 3.14927e-10 6.53472e-11 -1.97899e-10 
33 1.73099e-10 -5.31937e-11 1.07954e-10 
37 4.89448e-10 -1.09331e-10 1.10731e-10 
41 4.89642e-10 -1.13757e-10 -1.15009e-10 
45 2.71986e-10 -5.31285e-11 -1.72564e-10 
49 1.5878e-10 -8.43627e-11 7.90618e-11 
53 1.48981e-10 -8.83922e-11 2.86512e-11 
57 1.36332e-10 -1.04389e-10 -3.76834e-11 
61 1.22653e-10 -9.16838e-11 -5.97254e-11 
65 7.41249e-11 7.21232e-11 6.24654e-11 
69 1.37238e-10 1.72995e-10 3.60747e-11 
73 1.64759e-10 1.59002e-10 -4.02208e-11 
77 1.40101e-10 1.50429e-10 -1.11933e-10 
81 1.52722e-11 8.20212e-11 6.47626e-11 
85 4.24276e-11 1.52004e-10 4.25346e-11 
89 9.55345e-11 3.81063e-10 -1.05593e-10 
93 3.16307e-11 7.93435e-11 -7.20076e-11 
97 -1.4022e-12 6.33214e-11 3.39586e-11 
101 -2.52806e-11 1.19334e-10 2.10201e-11 
105 -2.92233e-11 1.25487e-10 -2.97731e-11 
109 -1.86845e-12 5.73594e-11 -3.03461e-11 
113 -8.21722e-12 1.08198e-11 5.5279e-12 
117 -1.0278e-12 8.79996e-12 -6.08225e-13 
121 -1.70144e-11 3.72862e-11 -9.1562e-13 
125 -9.15934e-12 1.12447e-11 -1.10467e-11 
129 1.8498e-11 1.32948e-11 2.69134e-11 
133 5.63472e-11 2.49561e-11 6.48441e-11 
137 1.25472e-10 -3.66638e-11 1.58229e-10 
141 9.26078e-11 -6.47584e-11 8.70295e-11 
145 2.26681e-11 3.33487e-11 5.24864e-11 
149 4.40225e-11 4.28611e-11 1.41514e-10 
153 4.83851e-11 -3.74288e-11 1.705e-10 
157 5.2274e-11 -7.14638e-11 1.1631e-10 
161 -1.11038e-13 4.09502e-11 6.75163e-11 
165 -1.55943e-11 2.49435e-11 8.82826e-11 
169 -6.75291e-12 -7.88752e-12 1.06127e-10 
173 -8.37246e-12 -3.51437e-11 4.28811e-11 
177 -2.16266e-12 7.54795e-13 8.10419e-12 
181 -4.67235e-12 4.55371e-12 1.60456e-11 
185 -7.31847e-12 -4.96631e-12 2.01736e-11 
189 -1.20724e-11 -1.20512e-11 1.58874e-11 
2 1.02368e-10 7.96734e-11 5.93692e-11 
6 2.08682e-10 1.4895e-10 2.85918e-11 
10 1.40423e-10 8.26394e-11 -3.20506e-11 
14 9.86857e-11 5.55462e-11 -4.04899e-11 
18 2.25805e-10 5.97433e-11 1.4976e-10 
22 4.96051e-10 9.74962e-11 8.48541e-11 
26 5.21803e-10 1.00864e-10 -1.34937e-10 
30 1.7866e-10 2.16609e-11 -8.52479e-11 
34 2.57043e-10 -6.13686e-11 2.07567e-10 
38 5.67522e-10 -1.07801e-10 1.31009e-10 
42 5.15983e-10 -1.09784e-10 -1.11326e-10 
46 2.53535e-10 -3.54142e-11 -1.75486e-10 
50 1.17667e-10 -1.00668e-10 9.21814e-11 
54 2.12414e-10 -1.43363e-10 6.50531e-11 
58 2.75751e-10 -1.95816e-10 -8.92658e-11 
62 1.23941e-10 -8.07045e-11 -8.90722e-11 
66 1.0131e-10 1.10205e-10 7.09026e-11 
70 8.30875e-11 9.75639e-11 1.14569e-11 
74 6.68261e-11 8.97344e-11 -2.43852e-11 
78 3.56819e-11 5.9431e-11 -2.33315e-11 
82 4.40878e-11 1.41914e-10 1.10424e-10 
86 1.00231e-10 2.87265e-10 3.3924e-11 
90 3.73271e-11 1.29609e-10 -2.28455e-11 
94 2.58247e-11 1.20499e-10 -7.53874e-11 
98 -4.37077e-12 6.12903e-11 4.89132e-11 
102 -2.48488e-11 8.96293e-11 3.60487e-11 
106 -1.38937e-11 6.91594e-11 -1.80016e-11 
110 -4.85568e-12 5.46562e-11 -5.1528e-11 
114 -6.57183e-12 5.5685e-12 6.55473e-12 
118 -3.85882e-12 1.58221e-11 -4.61214e-13 
122 -7.44155e-12 1.90011e-11 5.9826e-13 
126 -1.42876e-11 1.30414e-11 -1.59211e-11 
130 7.41055e-11 5.92703e-11 8.43083e-11 
134 9.63067e-11 2.29697e-11 1.33263e-10 
138 6.38303e-11 -1.54893e-11 9.84975e-11 
142 6.4342e-11 -5.57411e-11 9.11434e-11 
146 3.24114e-11 1.02885e-10 1.51383e-10 
150 5.41814e-11 2.9587e-11 1.81272e-10 
154 5.02243e-11 -3.96051e-11 1.62774e-10 
158 4.72896e-11 -7.89864e-11 1.44349e-10 
162 -9.59739e-12 3.02487e-11 4.76684e-11 
166 -3.80472e-12 3.13533e-11 9.83124e-11 
170 -1.68238e-11 -1.73153e-11 1.09565e-10 
174 3.64527e-12 -6.6275e-12 7.17503e-12 
178 -4.13529e-12 -1.19662e-12 7.76592e-12 
182 -1.2772e-11 9.30016e-12 3.49346e-11 
186 -1.09956e-11 7.38012e-13 1.78751e-11 
190 -6.50666e-12 -1.65818e-11 1.82963e-11 
3 -2.70797e-12 8.45434e-12 4.17206e-12 
7 0 0 0 
11 -7.65919e-12 4.85264e-12 -1.47823e-14 
15 0 0 0 
19 -2.84757e-11 9.06148e-12 2.34434e-11 
23 -1.20574e-11 2.99071e-12 2.8612e-12 
27 -2.30081e-11 2.06368e-12 -6.47938e-12 
31 -9.61643e-12 3.16987e-12 -4.57728e-12 
35 0 0 0 
39 0 0 0 
43 0 0 0 
47 -2.87419e-11 -9.61586e-12 -1.31268e-11 
51 0 0 0 
55 -1.22059e-11 -9.51089e-12 -3.36881e-12 
59 -1.2585e-11 -8.47766e-12 -1.85973e-12 
63 -1.17795e-11 -9.13485e-12 -3.7843e-12 
67 1.2102e-10 -1.26225e-10 8.25731e-11 
71 1.12705e-10 -1.38526e-10 3.96281e-11 
75 1.58528e-10 -1.96151e-10 -4.71601e-11 
79 7.50215e-11 -8.03284e-11 -7.27129e-11 
83 1.35895e-11 -5.57142e-11 4.33114e-11 
87 7.67386e-11 -2.31627e-10 5.22793e-11 
91 7.91931e-11 -2.37787e-10 -5.73905e-11 
95 3.33055e-11 -6.62585e-11 -4.28601e-11 
99 9.14857e-13 -4.99966e-11 3.6627e-11 
103 -1.08999e-11 -6.9313e-11 2.16191e-11 
107 -3.01488e-11 -1.07665e-10 -2.5878e-11 
111 -3.68487e-12 -3.00482e-11 -3.05948e-12 
115 -1.26556e-11 -2.55744e-11 1.11206e-11 
119 -1.34477e-11 -2.29094e-11 -1.10451e-12 
123 -1.10376e-11 -9.51658e-12 -2.1699e-12 
127 -1.2363e-11 -1.55432e-11 -1.54129e-11 
131 5.97286e-11 5.13172e-11 -6.74924e-11 
135 1.16758e-10 4.90861e-11 -1.33995e-10 
139 1.47817e-10 -4.40297e-11 -1.80025e-10 
143 1.34031e-10 -1.09831e-10 -1.36952e-10 
147 1.0684e-11 2.3662e-11 -4.16401e-11 
151 5.96362e-11 5.04988e-11 -1.95734e-10 
155 5.35415e-11 -4.46678e-11 -1.83963e-10 
159 2.61947e-11 -3.20376e-11 -5.19473e-11 
163 -3.63751e-12 4.7735e-11 -6.39545e-11 
167 -8.2351e-12 2.20312e-11 -1.34166e-10 
171 -3.0177e-11 -2.83641e-11 -1.53883e-10 
175 -2.93559e-12 -3.23189e-11 -3.10191e-11 
179 -2.69439e-12 4.65371e-12 -1.61371e-11 
183 -6.95304e-12 1.8922e-12 -9.88514e-12 
187 -1.12668e-11 -4.94827e-12 -1.06421e-11 
191 -3.78547e-12 -2.3034e-12 -6.85137e-12 
4 -5.90527e-12 7.88329e-12 7.70876e-12 
8 -1.06335e-11 8.51449e-12 6.16921e-12 
12 0 0 0 
16 -1.84631e-11 1.30847e-11 -1.00303e-11 
20 -2.97126e-11 3.12203e-12 2.18006e-11 
24 -5.77962e-12 1.81035e-12 2.33772e-12 
28 -2.01877e-11 3.30044e-12 -5.86554e-12 
32 0 0 0 
36 0 0 0 
40 -3.33651e-11 -8.44134e-12 1.2242e-11 
44 -1.33056e-11 -2.30858e-12 -8.57346e-14 
48 -4.34985e-12 -5.59984e-12 4.10869e-13 
52 -1.31621e-11 -1.05576e-11 9.6498e-12 
56 -4.47482e-11 -3.81394e-11 1.214e-11 
60 -2.48618e-11 -2.28033e-11 -8.74909e-12 
64 -4.50005e-12 -1.58226e-11 -2.09603e-11 
68 1.1486e-10 -1.23223e-10 7.90474e-11 
72 6.39387e-11 -1.02887e-10 3.10504e-11 
76 8.27409e-11 -1.15093e-10 -1.92305e-11 
80 5.13983e-11 -7.69708e-11 -6.13165e-11 
84 3.60863e-11 -8.81256e-11 5.11953e-11 
88 8.55702e-11 -2.20682e-10 2.14289e-11 
92 4.33337e-11 -1.63142e-10 -3.18826e-11 
96 3.22702e-11 -1.12473e-10 -7.93283e-11 
100 -5.89974e-12 -7.16207e-11 3.9975e-11 
104 -5.55735e-12 -3.69801e-11 1.61779e-11 
108 -1.58408e-11 -1.24637e-10 -2.29795e-11 
112 -1.40947e-11 -6.58902e-11 -4.59713e-11 
116 -1.64016e-12 -8.93702e-12 3.581e-12 
120 -1.03362e-11 -4.13147e-11 1.64142e-11 
124 0 0 0 
128 -1.11371e-11 -3.30974e-11 -1.77654e-11 
132 8.51112e-11 6.68103e-11 -1.03287e-10 
136 9.70123e-11 2.05811e-11 -1.24337e-10 
140 6.20049e-11 -2.15743e-11 -9.53145e-11 
144 3.41146e-11 -4.40665e-11 -7.01345e-11 
148 2.09878e-11 5.33797e-11 -9.50852e-11 
152 7.93481e-11 2.34693e-11 -2.06031e-10 
156 3.95354e-11 -2.11684e-11 -1.45776e-10 
160 2.05558e-11 -6.90337e-11 -1.06858e-10 
164 -4.04266e-12 2.95046e-11 -2.64679e-11 
168 -1.35272e-11 4.55281e-11 -1.23999e-10 
172 -7.42989e-12 -2.27336e-11 -7.34782e-11 
176 -8.41329e-12 -4.57757e-11 -6.33306e-11 
180 -8.79628e-12 4.94283e-12 -5.54642e-12 
184 -1.23021e-11 2.7016e-12 -1.15816e-11 
188 -2.00257e-11 -2.71398e-12 -3.30579e-11 
192 -3.70297e-12 -1.37297e-11 -1.37711e-11 
