ITEM: TIMESTEP
3000
ITEM: NUMBER OF SURFS
192
ITEM: BOX BOUNDS oo rr rr
0 0.0005
0 0.0005
0 0.0005
ITEM: SURFS id f_f_drag_blocks[1] f_f_drag_blocks[2] f_f_drag_blocks[3] 
1 0 0 0 
5 0 0 0 
9 0 0 0 
13 0 0 0 
17 0 0 0 
21 0 0 0 
25 0 0 0 
29 0 0 0 
33 0 0 0 
37 0 0 0 
41 0 0 0 
45 0 0 0 
49 0 0 0 
53 0 0 0 
57 0 0 0 
61 0 0 0 
65 0 0 0 
69 0 0 0 
73 0 0 0 
77 0 0 0 
81 0 0 0 
85 0 0 0 
89 0 0 0 
93 0 0 0 
97 0 0 0 
101 0 0 0 
105 0 0 0 
109 0 0 0 
113 0 0 0 
117 0 0 0 
121 0 0 0 
125 0 0 0 
129 0 0 0 
133 0 0 0 
137 0 0 0 
141 0 0 0 
145 0 0 0 
149 0 0 0 
153 0 0 0 
157 0 0 0 
161 0 0 0 
165 0 0 0 
169 0 0 0 
173 0 0 0 
177 0 0 0 
181 0 0 0 
185 0 0 0 
189 0 0 0 
2 0 0 0 
6 0 0 0 
10 0 0 0 
14 0 0 0 
18 0 0 0 
22 0 0 0 
26 0 0 0 
30 0 0 0 
34 0 0 0 
38 0 0 0 
42 0 0 0 
46 0 0 0 
50 0 0 0 
54 0 0 0 
58 0 0 0 
62 0 0 0 
66 0 0 0 
70 0 0 0 
74 0 0 0 
78 0 0 0 
82 0 0 0 
86 0 0 0 
90 0 0 0 
94 0 0 0 
98 0 0 0 
102 0 0 0 
106 0 0 0 
110 0 0 0 
114 0 0 0 
118 0 0 0 
122 0 0 0 
126 0 0 0 
130 0 0 0 
134 0 0 0 
138 0 0 0 
142 0 0 0 
146 0 0 0 
150 0 0 0 
154 0 0 0 
158 0 0 0 
162 0 0 0 
166 0 0 0 
170 0 0 0 
174 0 0 0 
178 0 0 0 
182 0 0 0 
186 0 0 0 
190 0 0 0 
3 0 0 0 
7 0 0 0 
11 0 0 0 
15 0 0 0 
19 0 0 0 
23 0 0 0 
27 0 0 0 
31 0 0 0 
35 0 0 0 
39 0 0 0 
43 0 0 0 
47 0 0 0 
51 0 0 0 
55 0 0 0 
59 0 0 0 
63 0 0 0 
67 0 0 0 
71 0 0 0 
75 0 0 0 
79 0 0 0 
83 0 0 0 
87 0 0 0 
91 0 0 0 
95 0 0 0 
99 0 0 0 
103 0 0 0 
107 0 0 0 
111 0 0 0 
115 0 0 0 
119 0 0 0 
123 0 0 0 
127 0 0 0 
131 0 0 0 
135 0 0 0 
139 0 0 0 
143 0 0 0 
147 0 0 0 
151 0 0 0 
155 0 0 0 
159 0 0 0 
163 0 0 0 
167 0 0 0 
171 0 0 0 
175 0 0 0 
179 0 0 0 
183 0 0 0 
187 0 0 0 
191 0 0 0 
4 0 0 0 
8 0 0 0 
12 0 0 0 
16 0 0 0 
20 0 0 0 
24 0 0 0 
28 0 0 0 
32 0 0 0 
36 0 0 0 
40 0 0 0 
44 0 0 0 
48 0 0 0 
52 0 0 0 
56 0 0 0 
60 0 0 0 
64 0 0 0 
68 0 0 0 
72 0 0 0 
76 0 0 0 
80 0 0 0 
84 0 0 0 
88 0 0 0 
92 0 0 0 
96 0 0 0 
100 0 0 0 
104 0 0 0 
108 0 0 0 
112 0 0 0 
116 0 0 0 
120 0 0 0 
124 0 0 0 
128 0 0 0 
132 0 0 0 
136 0 0 0 
140 0 0 0 
144 0 0 0 
148 0 0 0 
152 0 0 0 
156 0 0 0 
160 0 0 0 
164 0 0 0 
168 0 0 0 
172 0 0 0 
176 0 0 0 
180 0 0 0 
184 0 0 0 
188 0 0 0 
192 0 0 0 
ITEM: TIMESTEP
4000
ITEM: NUMBER OF SURFS
192
ITEM: BOX BOUNDS oo rr rr
0 0.0005
0 0.0005
0 0.0005
ITEM: SURFS id f_f_drag_blocks[1] f_f_drag_blocks[2] f_f_drag_blocks[3] 
1 1.55666e-10 8.91797e-11 1.02842e-10 
5 3.88206e-10 2.71102e-10 1.51022e-10 
9 3.28158e-10 2.18902e-10 -9.46186e-11 
13 9.53937e-11 7.65882e-11 -7.05618e-11 
17 2.40656e-10 3.6741e-11 1.67513e-10 
21 4.80751e-10 8.15494e-11 1.13901e-10 
25 5.65687e-10 1.30034e-10 -1.39813e-10 
29 2.48942e-10 8.2554e-11 -1.64957e-10 
33 1.8575e-10 -4.02982e-11 1.33035e-10 
37 4.67711e-10 -7.06951e-11 1.17875e-10 
41 3.19616e-10 -8.61236e-11 -7.89958e-11 
45 2.75541e-10 -6.87692e-11 -1.6837e-10 
49 1.5732e-10 -9.63341e-11 7.63935e-11 
53 1.86907e-10 -1.18722e-10 1.84741e-11 
57 2.16286e-10 -1.08157e-10 -4.12791e-11 
61 2.40481e-10 -1.54276e-10 -1.09582e-10 
65 3.90894e-11 6.22709e-11 5.51639e-11 
69 1.46647e-10 2.25733e-10 6.29145e-11 
73 1.8062e-10 2.06575e-10 -3.39684e-11 
77 5.96406e-11 6.55437e-11 -3.52992e-11 
81 3.46183e-12 4.49553e-11 3.3058e-11 
85 2.15074e-11 1.16037e-10 3.65598e-11 
89 4.644e-11 1.07546e-10 -2.39963e-11 
93 3.99616e-11 1.00543e-10 -6.98769e-11 
97 -6.50795e-12 4.72002e-11 1.26186e-11 
101 -1.21789e-11 9.08297e-11 9.60939e-12 
105 -1.53115e-11 1.66261e-10 -3.40442e-14 
109 7.24799e-12 3.54299e-11 -2.17894e-11 
113 0 0 0 
117 -3.05309e-11 4.63491e-11 1.44531e-11 
121 0 0 0 
125 -1.62539e-11 1.99939e-11 -1.94346e-11 
129 5.06285e-11 5.76629e-11 6.56152e-11 
133 1.42234e-10 4.07534e-11 1.77593e-10 
137 1.54063e-10 -2.80736e-11 2.18761e-10 
141 8.19503e-11 -7.22694e-11 1.02479e-10 
145 -1.2375e-12 2.56681e-11 4.45502e-11 
149 8.67908e-11 9.22406e-11 2.86303e-10 
153 6.40205e-11 -5.40968e-11 2.11734e-10 
157 5.23498e-11 -8.68388e-11 1.31031e-10 
161 -5.30189e-12 8.97153e-12 1.47071e-11 
165 2.58852e-12 2.29467e-11 9.49878e-11 
169 -8.24065e-12 -1.79115e-11 5.93213e-11 
173 -2.01307e-11 -2.91122e-11 7.64758e-11 
177 -6.27423e-12 8.94945e-12 1.31717e-11 
181 0 0 0 
185 -9.0452e-12 -6.59643e-13 2.88716e-11 
189 -4.99622e-12 -4.66092e-12 5.30908e-13 
2 1.04117e-10 7.01958e-11 4.81914e-11 
6 2.02503e-10 9.63176e-11 3.52198e-11 
10 3.0647e-10 1.7098e-10 -6.7472e-11 
14 8.83028e-11 5.88022e-11 -4.70034e-11 
18 2.69565e-10 3.4619e-11 1.61814e-10 
22 6.48709e-10 1.16908e-10 1.66154e-10 
26 7.083e-10 1.29747e-10 -1.29997e-10 
30 2.50752e-10 3.90163e-11 -1.27462e-10 
34 3.59173e-10 -6.72606e-11 2.22925e-10 
38 9.88207e-10 -1.85735e-10 2.34329e-10 
42 5.603e-10 -5.16386e-11 -1.27751e-10 
46 1.8549e-10 -4.01464e-11 -1.02476e-10 
50 2.21075e-10 -1.41818e-10 1.51238e-10 
54 3.72749e-10 -2.42296e-10 1.06137e-10 
58 1.32761e-10 -1.00849e-10 -4.96405e-11 
62 1.08487e-10 -9.03764e-11 -8.16698e-11 
66 8.68514e-11 1.28355e-10 8.34296e-11 
70 1.03674e-10 1.26385e-10 1.37933e-11 
74 1.1885e-10 2.13299e-10 -5.93843e-11 
78 8.22997e-11 8.25904e-11 -3.81738e-11 
82 2.91921e-11 5.64286e-11 2.21431e-11 
86 1.03179e-10 2.96971e-10 7.15927e-11 
90 5.23259e-11 2.15691e-10 -6.1106e-11 
94 3.30698e-11 1.94117e-10 -1.03711e-10 
98 3.90932e-12 1.34057e-11 1.65314e-11 
102 -7.27898e-12 1.45268e-10 2.05265e-11 
106 -1.71495e-11 1.18924e-10 -4.39999e-12 
110 -1.79992e-12 1.54711e-11 -1.03913e-11 
114 -1.12535e-11 1.54348e-11 8.33992e-12 
118 0 0 0 
122 8.03105e-12 5.71427e-12 -9.26751e-12 
126 -1.35605e-11 1.96843e-11 -1.88189e-11 
130 1.53361e-10 1.0551e-10 2.09877e-10 
134 8.61773e-11 2.3472e-11 7.6917e-11 
138 1.63009e-10 -4.56491e-11 1.84436e-10 
142 1.161e-10 -8.06954e-11 1.68112e-10 
146 3.42387e-11 6.37667e-11 9.43994e-11 
150 7.41327e-11 7.24264e-11 2.78503e-10 
154 3.1804e-11 -5.38101e-11 1.80063e-10 
158 3.91869e-11 -4.27831e-11 6.71814e-11 
162 -1.23382e-11 1.76116e-11 3.28556e-11 
166 -2.3975e-11 3.95655e-11 2.01988e-10 
170 -9.22414e-13 -2.2524e-12 1.22678e-10 
174 2.64644e-12 -4.41092e-12 6.45506e-12 
178 -2.96786e-11 1.22612e-11 2.22928e-11 
182 0 0 0 
186 1.19585e-12 -2.97996e-12 1.60839e-11 
190 -1.22205e-11 -2.17182e-11 1.39472e-11 
3 -3.6259e-11 1.18261e-11 1.46798e-11 
7 -2.25914e-11 2.23859e-11 2.3061e-11 
11 -9.85531e-12 -5.78041e-14 -1.04311e-13 
15 0 0 0 
19 0 0 0 
23 0 0 0 
27 0 0 0 
31 0 0 0 
35 -1.43864e-11 -7.72179e-12 1.82321e-11 
39 0 0 0 
43 0 0 0 
47 0 0 0 
51 0 0 0 
55 -1.6978e-11 -1.0684e-11 -8.82705e-13 
59 -1.03755e-11 -1.73307e-12 1.06213e-11 
63 0 0 0 
67 7.3232e-11 -1.19975e-10 9.0369e-11 
71 1.88613e-10 -2.44367e-10 4.87376e-11 
75 2.00851e-10 -2.33948e-10 -7.09887e-11 
79 8.17998e-11 -1.0516e-10 -6.54384e-11 
83 2.64209e-11 -1.03288e-10 6.40513e-11 
87 2.45074e-11 -1.33446e-10 3.23491e-11 
91 7.43422e-11 -2.08047e-10 -8.19361e-11 
95 2.42195e-11 -6.16553e-11 -2.96494e-11 
99 1.37205e-12 -1.99846e-11 8.79525e-12 
103 -3.97869e-12 -2.87271e-11 8.81991e-12 
107 1.32354e-12 -3.84296e-11 -2.23432e-11 
111 -6.80888e-12 -7.28557e-11 -2.78167e-11 
115 -1.29745e-11 -1.29902e-11 4.92274e-12 
119 -1.39461e-11 -3.51077e-11 4.18323e-12 
123 0 0 0 
127 0 0 0 
131 3.20059e-11 4.14029e-11 -4.9341e-11 
135 1.16323e-10 4.28164e-11 -1.47151e-10 
139 1.09853e-10 -4.4509e-11 -1.02939e-10 
143 1.18375e-10 -1.39561e-10 -1.48934e-10 
147 1.53531e-11 1.24356e-11 -1.288e-11 
151 3.22047e-11 3.49041e-11 -1.61163e-10 
155 7.00506e-11 -2.63704e-11 -1.72509e-10 
159 4.56021e-11 -8.80322e-11 -1.27755e-10 
163 -9.15925e-12 1.08819e-11 -1.59328e-11 
167 -2.4322e-11 2.96741e-11 -1.30669e-10 
171 -1.32384e-11 1.59597e-12 -1.05524e-11 
175 -7.70796e-12 -3.25423e-11 -3.46622e-11 
179 0 0 0 
183 -1.6091e-11 9.38252e-12 -3.48972e-11 
187 -1.02872e-11 -1.30192e-11 -2.82098e-11 
191 -2.23436e-11 -3.66073e-11 -3.30277e-11 
4 -1.3958e-11 1.5357e-11 2.05528e-11 
8 -1.30687e-11 2.60264e-12 1.09675e-11 
12 -2.48801e-11 1.76658e-11 -8.49633e-12 
16 0 0 0 
20 -1.29817e-11 1.09004e-13 5.31173e-12 
24 0 0 0 
28 -1.55349e-11 4.48317e-12 -1.13747e-11 
32 0 0 0 
36 0 0 0 
40 0 0 0 
44 0 0 0 
48 0 0 0 
52 0 0 0 
56 0 0 0 
60 0 0 0 
64 0 0 0 
68 1.18687e-10 -1.22543e-10 7.72154e-11 
72 7.96503e-11 -1.1097e-10 1.93758e-11 
76 1.62219e-10 -1.90681e-10 -5.22988e-11 
80 6.7885e-11 -8.11455e-11 -4.18932e-11 
84 5.58998e-11 -1.22827e-10 8.83946e-11 
88 7.66412e-11 -2.37087e-10 3.82811e-11 
92 6.12917e-11 -1.89736e-10 -1.8669e-11 
96 3.14924e-11 -9.73869e-11 -5.31528e-11 
100 -3.05301e-11 -1.24432e-10 4.70704e-11 
104 -3.93314e-13 -3.4895e-11 -9.1878e-12 
108 -2.43352e-11 -1.34355e-10 -2.0566e-11 
112 -8.97711e-12 -9.84888e-12 -1.19847e-11 
116 -9.2139e-12 -1.64698e-11 1.25961e-11 
120 -8.61606e-12 -2.32185e-11 1.21874e-11 
124 -3.85288e-11 -7.4735e-11 -1.93342e-11 
128 -4.84415e-12 -2.89372e-11 -2.15065e-11 
132 1.25482e-10 8.64367e-11 -1.74746e-10 
136 2.27348e-10 4.99227e-11 -2.66141e-10 
140 1.49302e-10 -4.34184e-11 -1.8507e-10 
144 2.65632e-11 -1.94157e-11 -6.43601e-11 
148 5.13791e-11 9.7459e-11 -1.47813e-10 
152 5.56199e-11 3.96668e-11 -1.69497e-10 
156 9.00874e-11 -4.32713e-11 -2.70389e-10 
160 9.06486e-12 -1.38017e-11 -3.97484e-11 
164 -2.97419e-11 5.64044e-11 -9.59231e-11 
168 -1.57078e-12 6.45511e-12 -6.13098e-11 
172 -1.87835e-12 -6.87467e-12 -1.95342e-11 
176 9.05925e-12 -3.90077e-11 -7.30174e-11 
180 -5.67082e-13 5.65824e-12 -1.52672e-11 
184 -2.36998e-11 1.21088e-11 -4.04242e-11 
188 -3.26712e-12 -1.08445e-11 -5.17495e-12 
192 4.51331e-12 -1.87127e-11 -9.11683e-12 
ITEM: TIMESTEP
5000
ITEM: NUMBER OF SURFS
192
ITEM: BOX BOUNDS oo rr rr
0 0.0005
0 0.0005
0 0.0005
ITEM: SURFS id f_f_drag_blocks[1] f_f_drag_blocks[2] f_f_drag_blocks[3] 
1 1.63431e-10 9.18239e-11 1.18275e-10 
5 1.98632e-10 1.62865e-10 5.55108e-11 
9 2.15815e-10 1.15148e-10 -7.26163e-11 
13 3.8808e-11 1.19082e-11 -2.26547e-11 
17 3.83341e-10 5.2466e-11 2.58112e-10 
21 4.29532e-10 6.78283e-11 9.17581e-11 
25 6.32552e-10 1.30559e-10 -1.73828e-10 
29 2.08777e-10 4.13421e-11 -1.46343e-10 
33 3.01997e-10 -8.67128e-11 1.72296e-10 
37 4.22339e-10 -6.10647e-11 7.85346e-11 
41 4.34794e-10 -1.30918e-10 -8.58665e-11 
45 2.65485e-10 -6.7533e-11 -1.63281e-10 
49 1.51598e-10 -9.28485e-11 7.72992e-11 
53 8.19271e-11 -4.60298e-11 2.10425e-11 
57 1.47681e-10 -1.04005e-10 -3.83393e-11 
61 1.21684e-10 -7.04342e-11 -7.15962e-11 
65 5.55021e-11 9.11735e-11 8.12685e-11 
69 1.3787e-10 1.81298e-10 6.55606e-11 
73 1.591e-10 2.13938e-10 -4.95035e-11 
77 9.7415e-11 1.16247e-10 -8.81016e-11 
81 1.76769e-11 4.13931e-11 1.90806e-11 
85 3.92686e-11 1.30053e-10 4.22418e-11 
89 7.31458e-11 2.36928e-10 -6.79705e-11 
93 4.21119e-11 1.08884e-10 -8.59883e-11 
97 -5.37908e-12 4.35728e-11 2.77466e-11 
101 1.21876e-11 7.41391e-11 1.33991e-11 
105 -1.24245e-11 1.13078e-10 -1.01187e-11 
109 -6.83492e-12 7.42342e-11 -4.89141e-11 
113 -5.66679e-12 1.03143e-11 9.91026e-12 
117 -6.30023e-12 1.52047e-11 -3.41979e-12 
121 -1.05908e-11 1.04442e-11 -2.6465e-12 
125 0 0 0 
129 3.99173e-11 6.46261e-11 9.65808e-11 
133 1.6182e-10 4.44634e-11 2.52934e-10 
137 1.83163e-10 -6.70738e-11 2.72314e-10 
141 6.70229e-11 -6.16253e-11 7.99171e-11 
145 2.54559e-11 7.13917e-11 1.05022e-10 
149 1.25602e-10 8.00725e-11 3.75186e-10 
153 7.463e-11 -8.86565e-11 2.28937e-10 
157 5.45183e-11 -1.45749e-10 2.35769e-10 
161 2.56975e-12 4.64762e-11 5.07579e-11 
165 9.48555e-12 1.54403e-11 1.68862e-10 
169 -2.38273e-11 -4.248e-11 1.11828e-10 
173 -3.901e-11 -7.25471e-11 9.72552e-11 
177 0 0 0 
181 -2.0597e-11 5.25499e-13 7.35549e-11 
185 -1.98484e-11 3.26877e-12 1.34604e-11 
189 0 0 0 
2 1.16383e-10 7.43548e-11 6.07311e-11 
6 8.45798e-11 6.66848e-11 1.82959e-11 
10 1.27931e-10 7.17231e-11 -4.72893e-11 
14 9.20313e-11 3.25275e-11 -4.53051e-11 
18 2.51791e-10 2.91229e-11 1.2949e-10 
22 4.0175e-10 1.01985e-10 9.54703e-11 
26 8.55936e-10 1.30521e-10 -1.938e-10 
30 3.42659e-10 5.16938e-11 -2.03537e-10 
34 2.37791e-10 -6.59478e-11 1.47834e-10 
38 5.04117e-10 -1.01304e-10 1.26903e-10 
42 4.93621e-10 -8.1529e-11 -1.28779e-10 
46 2.15104e-10 -4.05555e-11 -1.50775e-10 
50 1.22493e-10 -1.17484e-10 9.59371e-11 
54 3.22378e-10 -1.92319e-10 8.19937e-11 
58 1.96035e-10 -1.0764e-10 -4.60829e-11 
62 4.72497e-11 -2.11086e-11 -3.50005e-11 
66 2.96657e-11 3.2016e-11 3.36982e-11 
70 8.13644e-11 9.58668e-11 1.86602e-11 
74 1.05754e-10 1.25509e-10 -3.69034e-11 
78 8.47689e-12 2.88033e-11 -2.16417e-11 
82 4.44761e-11 8.53359e-11 6.578e-11 
86 1.37541e-10 3.80849e-10 7.35194e-11 
90 3.23892e-11 1.10749e-10 8.08971e-12 
94 2.29531e-11 6.85054e-11 -3.75785e-11 
98 -2.0448e-11 2.4836e-11 4.08162e-11 
102 -1.67638e-11 1.32984e-10 1.73448e-11 
106 -5.91246e-13 2.44145e-11 -7.16706e-13 
110 -1.305e-11 8.18618e-11 -4.94887e-11 
114 -2.33264e-11 2.75432e-11 2.28395e-11 
118 -1.19822e-11 4.3558e-11 1.31068e-11 
122 -2.98882e-12 2.0488e-11 9.22412e-14 
126 -1.11131e-11 3.52181e-11 -8.5728e-12 
130 1.41337e-10 1.21498e-10 1.44296e-10 
134 7.89043e-11 3.52033e-11 1.16282e-10 
138 2.12416e-10 -6.51374e-11 2.59165e-10 
142 2.49788e-11 -2.6654e-11 3.86314e-11 
146 5.19918e-11 9.39917e-11 1.45701e-10 
150 9.57569e-11 6.02377e-11 1.99388e-10 
154 2.03104e-11 -1.79376e-11 9.23741e-11 
158 3.70717e-11 -8.72717e-11 1.44683e-10 
162 -3.09016e-11 8.65752e-11 1.16328e-10 
166 -2.71643e-11 3.78992e-11 1.42948e-10 
170 -1.53488e-11 -1.52161e-11 7.71027e-11 
174 -4.42953e-12 -3.78207e-11 3.05911e-11 
178 -2.84012e-11 4.05584e-11 3.48598e-11 
182 -3.20538e-11 1.11352e-11 3.66457e-11 
186 -6.20465e-12 5.20481e-12 9.37751e-12 
190 0 0 0 
3 -2.50111e-11 2.12226e-11 1.87224e-11 
7 -2.0524e-11 2.70001e-11 1.75567e-11 
11 0 0 0 
15 -2.70347e-11 2.28889e-11 -2.6973e-11 
19 0 0 0 
23 0 0 0 
27 -9.47386e-12 3.77772e-12 3.23398e-12 
31 -1.19848e-11 6.05848e-12 -5.9756e-12 
35 -4.55794e-12 3.12377e-12 3.83487e-12 
39 0 0 0 
43 -3.28953e-11 -6.07788e-12 -2.86387e-13 
47 0 0 0 
51 0 0 0 
55 0 0 0 
59 -6.46961e-12 6.57443e-13 -2.18897e-12 
63 -2.89766e-12 -6.48724e-13 -6.45146e-12 
67 4.9465e-11 -7.34497e-11 5.68581e-11 
71 1.3627e-10 -1.73273e-10 3.1565e-11 
75 2.0855e-10 -2.85066e-10 -5.72905e-11 
79 6.39091e-11 -8.40843e-11 -6.6609e-11 
83 1.96874e-11 -6.23503e-11 3.47996e-11 
87 3.60855e-11 -1.13491e-10 2.35013e-11 
91 9.17582e-11 -2.38768e-10 -3.44527e-11 
95 5.45835e-11 -1.2248e-10 -1.11942e-10 
99 0 0 0 
103 6.58655e-12 -2.1692e-11 6.14539e-12 
107 -2.077e-11 -1.3288e-10 -3.0859e-11 
111 6.43587e-12 -5.7477e-11 -3.27537e-11 
115 -9.33507e-12 -7.74244e-12 5.76317e-12 
119 -6.66045e-12 -3.22129e-12 -3.16501e-12 
123 -1.22662e-11 -4.69413e-11 -1.31748e-11 
127 0 0 0 
131 3.85618e-11 2.63765e-11 -3.71872e-11 
135 1.56275e-10 7.19733e-11 -2.05977e-10 
139 1.26638e-10 -1.62666e-11 -1.7299e-10 
143 5.23651e-11 -2.83867e-11 -5.32137e-11 
147 2.20275e-11 9.22162e-11 -1.07908e-10 
151 4.24848e-11 3.48913e-11 -1.9851e-10 
155 3.47898e-11 -1.32709e-11 -1.86199e-10 
159 6.0074e-12 -5.01732e-12 -5.77742e-12 
163 3.11722e-13 2.73164e-11 -6.95883e-11 
167 -1.09087e-11 7.09846e-12 -2.84464e-11 
171 3.16043e-12 -3.62812e-11 -1.40246e-10 
175 -1.48065e-11 -2.44438e-11 -3.70944e-11 
179 3.01946e-12 1.47891e-11 -6.217e-12 
183 0 0 0 
187 -2.82991e-11 -1.35463e-11 -3.949e-11 
191 -1.04663e-11 -1.23936e-11 -1.53262e-11 
4 -2.12191e-11 2.1099e-11 9.27122e-12 
8 0 0 0 
12 -4.8035e-11 3.12299e-11 -1.87373e-11 
16 -1.04817e-11 1.20758e-11 -2.85066e-12 
20 0 0 0 
24 0 0 0 
28 -1.21694e-11 -1.44841e-12 -2.77025e-12 
32 -1.26893e-11 1.02193e-12 -6.32213e-12 
36 0 0 0 
40 -1.61287e-11 -3.31597e-12 1.60101e-12 
44 0 0 0 
48 0 0 0 
52 -3.92433e-11 -4.03845e-11 4.72808e-11 
56 0 0 0 
60 -3.66504e-11 -2.38061e-11 -4.999e-12 
64 0 0 0 
68 7.74005e-11 -6.70403e-11 5.35803e-11 
72 1.17475e-10 -1.57155e-10 8.70947e-12 
76 1.39786e-10 -2.51749e-10 -4.8309e-11 
80 5.22444e-12 -1.77146e-11 -1.39537e-11 
84 4.43173e-11 -1.93578e-10 9.80721e-11 
88 9.58596e-11 -2.19055e-10 5.29994e-11 
92 5.26256e-11 -1.65786e-10 -2.64103e-11 
96 1.5043e-11 -5.93073e-11 -2.72274e-11 
100 1.06708e-11 -6.6667e-11 3.90655e-11 
104 1.00192e-13 -5.45122e-11 4.91257e-12 
108 -1.87945e-11 -1.46577e-10 -4.47306e-11 
112 0 0 0 
116 0 0 0 
120 -1.35137e-11 -1.01795e-11 -1.34638e-11 
124 -4.80515e-12 -1.39225e-11 -1.37537e-12 
128 -1.99641e-11 -2.64368e-11 -2.96336e-11 
132 1.27744e-10 9.08589e-11 -1.20069e-10 
136 1.16605e-10 2.06386e-11 -1.30286e-10 
140 6.32764e-11 -1.35655e-11 -1.05042e-10 
144 1.43314e-11 -1.50712e-11 -2.81206e-11 
148 3.68401e-11 3.66444e-11 -1.08423e-10 
152 3.62496e-11 4.75418e-11 -1.51924e-10 
156 6.69481e-11 -3.6287e-11 -2.18593e-10 
160 1.63309e-11 -7.23669e-11 -1.21037e-10 
164 -2.01843e-11 5.97266e-11 -5.20916e-11 
168 -1.93319e-11 4.24369e-11 -1.13155e-10 
172 -9.17032e-12 -1.73495e-11 -9.93329e-11 
176 -2.13981e-11 -4.79606e-11 -6.2642e-11 
180 -4.99028e-11 6.50886e-11 -4.40085e-11 
184 -2.52347e-11 9.69761e-12 -5.18641e-11 
188 -3.55978e-12 -5.32313e-12 -6.23562e-12 
192 0 0 0 
