ITEM: TIMESTEP
3000
ITEM: NUMBER OF SURFS
192
ITEM: BOX BOUNDS oo rr rr
0 0.0005
0 0.0005
0 0.0005
ITEM: SURFS id f_f_drag_blocks[1] f_f_drag_blocks[2] f_f_drag_blocks[3] 
1 0 0 0 
5 0 0 0 
9 0 0 0 
13 0 0 0 
17 0 0 0 
21 0 0 0 
25 0 0 0 
29 0 0 0 
33 0 0 0 
37 0 0 0 
41 0 0 0 
45 0 0 0 
49 0 0 0 
53 0 0 0 
57 0 0 0 
61 0 0 0 
65 0 0 0 
69 0 0 0 
73 0 0 0 
77 0 0 0 
81 0 0 0 
85 0 0 0 
89 0 0 0 
93 0 0 0 
97 0 0 0 
101 0 0 0 
105 0 0 0 
109 0 0 0 
113 0 0 0 
117 0 0 0 
121 0 0 0 
125 0 0 0 
129 0 0 0 
133 0 0 0 
137 0 0 0 
141 0 0 0 
145 0 0 0 
149 0 0 0 
153 0 0 0 
157 0 0 0 
161 0 0 0 
165 0 0 0 
169 0 0 0 
173 0 0 0 
177 0 0 0 
181 0 0 0 
185 0 0 0 
189 0 0 0 
2 0 0 0 
6 0 0 0 
10 0 0 0 
14 0 0 0 
18 0 0 0 
22 0 0 0 
26 0 0 0 
30 0 0 0 
34 0 0 0 
38 0 0 0 
42 0 0 0 
46 0 0 0 
50 0 0 0 
54 0 0 0 
58 0 0 0 
62 0 0 0 
66 0 0 0 
70 0 0 0 
74 0 0 0 
78 0 0 0 
82 0 0 0 
86 0 0 0 
90 0 0 0 
94 0 0 0 
98 0 0 0 
102 0 0 0 
106 0 0 0 
110 0 0 0 
114 0 0 0 
118 0 0 0 
122 0 0 0 
126 0 0 0 
130 0 0 0 
134 0 0 0 
138 0 0 0 
142 0 0 0 
146 0 0 0 
150 0 0 0 
154 0 0 0 
158 0 0 0 
162 0 0 0 
166 0 0 0 
170 0 0 0 
174 0 0 0 
178 0 0 0 
182 0 0 0 
186 0 0 0 
190 0 0 0 
3 0 0 0 
7 0 0 0 
11 0 0 0 
15 0 0 0 
19 0 0 0 
23 0 0 0 
27 0 0 0 
31 0 0 0 
35 0 0 0 
39 0 0 0 
43 0 0 0 
47 0 0 0 
51 0 0 0 
55 0 0 0 
59 0 0 0 
63 0 0 0 
67 0 0 0 
71 0 0 0 
75 0 0 0 
79 0 0 0 
83 0 0 0 
87 0 0 0 
91 0 0 0 
95 0 0 0 
99 0 0 0 
103 0 0 0 
107 0 0 0 
111 0 0 0 
115 0 0 0 
119 0 0 0 
123 0 0 0 
127 0 0 0 
131 0 0 0 
135 0 0 0 
139 0 0 0 
143 0 0 0 
147 0 0 0 
151 0 0 0 
155 0 0 0 
159 0 0 0 
163 0 0 0 
167 0 0 0 
171 0 0 0 
175 0 0 0 
179 0 0 0 
183 0 0 0 
187 0 0 0 
191 0 0 0 
4 0 0 0 
8 0 0 0 
12 0 0 0 
16 0 0 0 
20 0 0 0 
24 0 0 0 
28 0 0 0 
32 0 0 0 
36 0 0 0 
40 0 0 0 
44 0 0 0 
48 0 0 0 
52 0 0 0 
56 0 0 0 
60 0 0 0 
64 0 0 0 
68 0 0 0 
72 0 0 0 
76 0 0 0 
80 0 0 0 
84 0 0 0 
88 0 0 0 
92 0 0 0 
96 0 0 0 
100 0 0 0 
104 0 0 0 
108 0 0 0 
112 0 0 0 
116 0 0 0 
120 0 0 0 
124 0 0 0 
128 0 0 0 
132 0 0 0 
136 0 0 0 
140 0 0 0 
144 0 0 0 
148 0 0 0 
152 0 0 0 
156 0 0 0 
160 0 0 0 
164 0 0 0 
168 0 0 0 
172 0 0 0 
176 0 0 0 
180 0 0 0 
184 0 0 0 
188 0 0 0 
192 0 0 0 
ITEM: TIMESTEP
4000
ITEM: NUMBER OF SURFS
192
ITEM: BOX BOUNDS oo rr rr
0 0.0005
0 0.0005
0 0.0005
ITEM: SURFS id f_f_drag_blocks[1] f_f_drag_blocks[2] f_f_drag_blocks[3] 
1 1.37342e-10 7.71095e-11 9.85699e-11 
5 2.29285e-10 1.4016e-10 5.65453e-11 
9 2.56821e-10 1.7187e-10 -5.87278e-11 
13 1.27472e-10 9.21035e-11 -8.89915e-11 
17 2.19939e-10 4.52408e-11 1.4687e-10 
21 5.5032e-10 1.22477e-10 1.29982e-10 
25 5.89643e-10 1.30063e-10 -1.33337e-10 
29 2.67287e-10 7.05684e-11 -1.78193e-10 
33 2.48498e-10 -4.7395e-11 1.46556e-10 
37 4.63378e-10 -9.75623e-11 9.27644e-11 
41 5.48802e-10 -1.23688e-10 -1.13162e-10 
45 2.96274e-10 -7.24432e-11 -1.87363e-10 
49 1.20956e-10 -6.46553e-11 6.55567e-11 
53 2.03721e-10 -1.24503e-10 3.79543e-11 
57 2.21191e-10 -1.40314e-10 -4.31101e-11 
61 1.1466e-10 -8.01988e-11 -6.63435e-11 
65 5.71732e-11 7.28513e-11 5.85161e-11 
69 1.34009e-10 1.89805e-10 4.81939e-11 
73 1.5055e-10 1.90243e-10 -5.04616e-11 
77 7.74345e-11 8.18551e-11 -6.68997e-11 
81 2.80753e-11 8.96923e-11 6.84269e-11 
85 5.91476e-11 1.94517e-10 4.05352e-11 
89 6.85098e-11 2.08485e-10 -4.46916e-11 
93 3.98632e-11 1.17943e-10 -8.04163e-11 
97 -3.38719e-12 4.12877e-11 2.66264e-11 
101 -9.61719e-12 6.37581e-11 1.16503e-11 
105 -9.61239e-12 7.5492e-11 -1.80568e-11 
109 -3.22791e-12 5.4285e-11 -3.45939e-11 
113 -9.23787e-12 1.85728e-11 8.51824e-12 
117 -7.33955e-12 1.58623e-11 2.52704e-12 
121 -1.2763e-11 2.154e-11 -5.46508e-12 
125 -7.85146e-12 1.1908e-11 -7.99488e-12 
129 6.24569e-11 6.07245e-11 8.93723e-11 
133 1.28068e-10 5.04737e-11 1.82728e-10 
137 1.41859e-10 -4.75666e-11 1.74713e-10 
141 9.36128e-11 -8.50191e-11 1.11759e-10 
145 2.60461e-11 5.98425e-11 8.43524e-11 
149 6.25889e-11 4.49855e-11 1.98245e-10 
153 7.20291e-11 -4.91012e-11 2.20088e-10 
157 4.26946e-11 -9.73403e-11 1.36321e-10 
161 -4.41329e-12 3.81362e-11 5.79814e-11 
165 -1.40832e-11 1.82619e-11 9.809e-11 
169 -1.32259e-11 -2.33846e-11 9.98733e-11 
173 -9.57581e-12 -3.75271e-11 4.91693e-11 
177 -8.32262e-12 7.96309e-12 1.47388e-11 
181 -1.22385e-11 4.77188e-12 2.4914e-11 
185 -8.65539e-12 -3.4584e-12 1.53999e-11 
189 -8.33113e-12 -9.79439e-12 1.59303e-11 
2 1.26895e-10 9.03056e-11 7.5698e-11 
6 2.61871e-10 1.76041e-10 5.02521e-11 
10 2.37046e-10 1.39441e-10 -4.32027e-11 
14 1.23817e-10 6.89887e-11 -6.4745e-11 
18 2.8133e-10 6.45187e-11 1.75983e-10 
22 4.97002e-10 1.11268e-10 1.0002e-10 
26 5.17795e-10 1.04575e-10 -1.04165e-10 
30 2.01067e-10 3.76381e-11 -1.22372e-10 
34 2.61891e-10 -6.17501e-11 1.7834e-10 
38 5.70916e-10 -1.31278e-10 1.25849e-10 
42 5.227e-10 -1.05387e-10 -1.23512e-10 
46 1.99197e-10 -3.83862e-11 -1.38118e-10 
50 1.47771e-10 -1.19788e-10 1.09616e-10 
54 2.17836e-10 -1.48828e-10 5.27289e-11 
58 2.68556e-10 -1.70507e-10 -6.94754e-11 
62 1.25269e-10 -7.73839e-11 -8.68785e-11 
66 9.25161e-11 1.01345e-10 7.02306e-11 
70 1.29164e-10 1.64811e-10 3.07262e-11 
74 1.08434e-10 1.50001e-10 -2.99816e-11 
78 5.29968e-11 7.74035e-11 -4.68897e-11 
82 3.71263e-11 1.01781e-10 7.01684e-11 
86 5.19287e-11 1.79528e-10 3.94913e-11 
90 4.65458e-11 1.62647e-10 -3.31831e-11 
94 2.06907e-11 8.35067e-11 -5.307e-11 
98 -4.94178e-12 4.54538e-11 3.03474e-11 
102 -1.86769e-11 1.15487e-10 2.27398e-11 
106 -1.55997e-11 1.21768e-10 -3.17941e-11 
110 -2.94373e-12 6.15332e-11 -4.61275e-11 
114 -1.32956e-11 2.12746e-11 1.55419e-11 
118 -1.64585e-11 3.28977e-11 8.31119e-12 
122 -1.27802e-11 2.50202e-11 -6.5041e-12 
126 -8.5125e-12 1.48836e-11 -1.0265e-11 
130 7.48178e-11 5.96956e-11 9.17276e-11 
134 1.41994e-10 3.19481e-11 1.73879e-10 
138 9.71575e-11 -2.88104e-11 1.38967e-10 
142 4.8522e-11 -4.19388e-11 6.98678e-11 
146 3.53506e-11 6.59527e-11 1.0212e-10 
150 8.05131e-11 5.73098e-11 2.29911e-10 
154 4.01989e-11 -3.67459e-11 1.59819e-10 
158 2.2586e-11 -6.12519e-11 1.0293e-10 
162 -5.36674e-12 3.92859e-11 5.3462e-11 
166 -1.65722e-11 2.67876e-11 9.86035e-11 
170 -8.15258e-12 -2.39057e-11 9.31222e-11 
174 -5.81114e-12 -3.18437e-11 4.41343e-11 
178 -9.25073e-12 1.20507e-11 1.31176e-11 
182 -2.16924e-11 4.87275e-12 3.55495e-11 
186 -1.34993e-11 -8.24579e-12 2.9386e-11 
190 -9.49845e-12 -1.10499e-11 1.92524e-11 
3 -7.47833e-12 4.03948e-12 6.48499e-12 
7 -8.65238e-12 6.25233e-12 3.43809e-12 
11 -8.31879e-12 7.21835e-12 -3.35482e-12 
15 -1.23699e-11 1.13213e-11 -1.28462e-11 
19 -8.30108e-12 9.01726e-13 8.37075e-12 
23 -1.25721e-11 2.61017e-12 3.11899e-12 
27 -8.32366e-12 3.10414e-12 -1.80733e-12 
31 -1.11842e-11 3.39632e-12 -1.06456e-11 
35 -7.19057e-12 -1.94342e-12 4.87739e-12 
39 -9.25317e-12 -2.38138e-12 3.04996e-12 
43 -1.16736e-11 -4.11587e-12 -3.94864e-12 
47 -8.22089e-12 -2.78914e-12 -9.05286e-12 
51 -5.26379e-12 -3.68685e-12 3.73275e-12 
55 -6.84539e-12 -7.42449e-12 2.27584e-12 
59 -8.51826e-12 -8.05906e-12 -2.65896e-12 
63 -3.522e-12 -4.16669e-12 -3.6688e-12 
67 4.73073e-11 -7.04966e-11 5.52338e-11 
71 1.14235e-10 -1.44063e-10 3.80937e-11 
75 1.54927e-10 -1.83274e-10 -4.73813e-11 
79 1.13744e-10 -1.236e-10 -1.00615e-10 
83 3.07605e-11 -9.01527e-11 6.45745e-11 
87 4.92581e-11 -1.82763e-10 4.48328e-11 
91 7.4597e-11 -2.3183e-10 -5.93323e-11 
95 3.83798e-11 -1.11101e-10 -8.19578e-11 
99 -2.91665e-12 -4.9234e-11 3.26457e-11 
103 -1.34246e-11 -9.02553e-11 1.72217e-11 
107 -1.92072e-11 -1.13003e-10 -2.79659e-11 
111 -1.20697e-11 -5.6307e-11 -3.89397e-11 
115 -9.30148e-12 -1.76417e-11 8.79793e-12 
119 -1.09399e-11 -1.99512e-11 5.18479e-12 
123 -1.24914e-11 -2.34994e-11 -4.07878e-12 
127 -8.62486e-12 -1.19719e-11 -7.83905e-12 
131 6.65206e-11 6.86811e-11 -9.08927e-11 
135 1.18437e-10 3.44824e-11 -1.59532e-10 
139 1.4578e-10 -4.39116e-11 -1.85593e-10 
143 9.48659e-11 -8.27454e-11 -1.02686e-10 
147 2.06477e-11 5.57215e-11 -7.69795e-11 
151 6.38602e-11 4.5196e-11 -2.2608e-10 
155 6.61675e-11 -5.6591e-11 -2.23159e-10 
159 3.39787e-11 -7.3939e-11 -1.0514e-10 
163 -1.1496e-11 4.11129e-11 -6.08524e-11 
167 -7.58117e-12 1.83301e-11 -8.42254e-11 
171 -1.3376e-11 -2.17079e-11 -9.98131e-11 
175 -9.52024e-12 -3.62714e-11 -5.10721e-11 
179 -7.62712e-12 1.05936e-11 -1.76356e-11 
183 -9.14342e-12 4.54085e-12 -1.78812e-11 
187 -1.3819e-11 -6.98377e-12 -2.14943e-11 
191 -6.09624e-12 -8.62022e-12 -1.16125e-11 
4 -6.06099e-12 4.40011e-12 5.39502e-12 
8 -6.51981e-12 7.30841e-12 1.91192e-12 
12 -5.75902e-12 4.48468e-12 -2.95555e-12 
16 -2.84812e-12 2.95969e-12 -1.65637e-12 
20 -4.97089e-12 9.96142e-13 5.76943e-12 
24 -8.77457e-12 2.00056e-12 2.33646e-12 
28 -4.36235e-12 1.53513e-12 -2.50337e-12 
32 -9.50818e-12 1.77185e-12 -6.96582e-12 
36 -1.07155e-11 -4.18071e-12 8.18612e-12 
40 -1.97529e-11 -6.5162e-12 8.35036e-12 
44 -1.07561e-11 -2.49211e-12 -2.29371e-12 
48 -9.3879e-12 -2.84653e-12 -7.60565e-12 
52 -1.01531e-11 -8.75875e-12 7.44589e-12 
56 -1.45673e-11 -1.20897e-11 5.26181e-12 
60 -5.34637e-12 -4.65542e-12 -1.34182e-12 
64 -7.49348e-12 -7.24633e-12 -7.5752e-12 
68 7.75045e-11 -9.49548e-11 6.23773e-11 
72 1.24232e-10 -1.59284e-10 3.36375e-11 
76 9.17069e-11 -1.33337e-10 -2.64422e-11 
80 4.59569e-11 -7.41947e-11 -4.04797e-11 
84 3.97603e-11 -1.14069e-10 7.523e-11 
88 5.76326e-11 -1.79855e-10 3.81529e-11 
92 5.88912e-11 -1.98594e-10 -3.90747e-11 
96 2.37508e-11 -6.94996e-11 -4.68474e-11 
100 -8.39311e-12 -4.95346e-11 3.65372e-11 
104 -2.06109e-11 -9.77008e-11 2.76834e-11 
108 -1.43225e-11 -1.03625e-10 -2.65464e-11 
112 -5.58709e-12 -5.22319e-11 -3.72139e-11 
116 -9.58164e-12 -1.26116e-11 1.05349e-11 
120 -2.19251e-11 -3.84454e-11 1.10795e-11 
124 -1.6199e-11 -2.50519e-11 -6.451e-12 
128 -9.65868e-12 -1.60462e-11 -1.32755e-11 
132 7.55358e-11 5.5695e-11 -9.05292e-11 
136 1.30897e-10 3.26467e-11 -1.61918e-10 
140 1.12288e-10 -3.10935e-11 -1.53874e-10 
144 5.81262e-11 -5.12943e-11 -8.75655e-11 
148 4.02649e-11 8.10234e-11 -1.11841e-10 
152 6.10394e-11 3.73836e-11 -1.90414e-10 
156 4.81443e-11 -3.63237e-11 -1.67286e-10 
160 2.30258e-11 -5.80722e-11 -8.80064e-11 
164 -1.03806e-11 4.24865e-11 -6.23841e-11 
168 -1.20418e-11 2.33297e-11 -1.13773e-10 
172 -1.18243e-11 -2.45094e-11 -1.01787e-10 
176 -4.48304e-12 -3.77075e-11 -5.53521e-11 
180 -5.51005e-12 7.19619e-12 -1.02707e-11 
184 -1.54466e-11 7.59088e-12 -3.04827e-11 
188 -1.59648e-11 -7.15318e-12 -2.37219e-11 
192 -9.2227e-12 -1.14166e-11 -1.48104e-11 
ITEM: TIMESTEP
5000
ITEM: NUMBER OF SURFS
192
ITEM: BOX BOUNDS oo rr rr
0 0.0005
0 0.0005
0 0.0005
ITEM: SURFS id f_f_drag_blocks[1] f_f_drag_blocks[2] f_f_drag_blocks[3] 
1 1.07265e-10 6.38795e-11 8.07735e-11 
5 2.73258e-10 1.72326e-10 6.25352e-11 
9 2.70567e-10 1.856e-10 -6.3446e-11 
13 1.27711e-10 9.4781e-11 -1.02718e-10 
17 1.98427e-10 4.05133e-11 1.37114e-10 
21 4.74998e-10 9.19059e-11 1.0306e-10 
25 5.71507e-10 1.20755e-10 -1.25023e-10 
29 2.94245e-10 7.1116e-11 -2.0347e-10 
33 2.03442e-10 -3.69935e-11 1.26959e-10 
37 5.31472e-10 -1.04619e-10 1.07735e-10 
41 5.43558e-10 -1.12085e-10 -1.09622e-10 
45 2.86292e-10 -6.83583e-11 -1.74126e-10 
49 1.10518e-10 -5.62211e-11 5.53227e-11 
53 2.30668e-10 -1.34863e-10 4.42703e-11 
57 2.20714e-10 -1.48403e-10 -3.78603e-11 
61 1.32191e-10 -9.19308e-11 -7.96646e-11 
65 7.19749e-11 9.65323e-11 7.67802e-11 
69 1.20285e-10 1.6761e-10 4.27619e-11 
73 1.36714e-10 1.68746e-10 -4.78301e-11 
77 1.01103e-10 1.03865e-10 -9.40614e-11 
81 2.28851e-11 7.93633e-11 6.18312e-11 
85 5.24499e-11 2.02123e-10 4.35642e-11 
89 6.10253e-11 2.21976e-10 -5.70935e-11 
93 4.18649e-11 1.17751e-10 -8.95765e-11 
97 -3.19548e-12 5.66117e-11 3.35468e-11 
101 -5.18667e-12 7.71487e-11 1.38525e-11 
105 -1.77306e-11 1.01231e-10 -2.36457e-11 
109 -3.18843e-12 4.63523e-11 -3.01934e-11 
113 -8.27389e-12 1.78439e-11 1.14337e-11 
117 -1.08422e-11 2.25337e-11 5.7897e-12 
121 -1.25094e-11 2.22889e-11 -3.80942e-12 
125 -8.91044e-12 1.46964e-11 -9.19743e-12 
129 6.36828e-11 6.70507e-11 9.61761e-11 
133 1.2838e-10 4.47974e-11 1.74088e-10 
137 1.62832e-10 -5.03139e-11 2.06652e-10 
141 1.11309e-10 -9.77046e-11 1.25464e-10 
145 2.19442e-11 5.83834e-11 7.98986e-11 
149 5.56107e-11 4.30471e-11 2.07982e-10 
153 5.79265e-11 -4.24096e-11 2.00899e-10 
157 4.35144e-11 -8.75842e-11 1.18497e-10 
161 -5.80521e-12 2.55053e-11 4.41193e-11 
165 -1.1974e-11 1.80943e-11 8.51354e-11 
169 -5.9762e-12 -1.76515e-11 7.58877e-11 
173 -7.29552e-12 -3.50822e-11 5.54804e-11 
177 -3.91946e-12 5.65889e-12 9.25692e-12 
181 -1.45131e-11 5.23399e-12 3.25125e-11 
185 -1.11251e-11 -4.79661e-12 1.89288e-11 
189 -1.04225e-11 -9.61053e-12 1.49557e-11 
2 1.43082e-10 1.03014e-10 7.7784e-11 
6 2.24228e-10 1.49233e-10 4.28128e-11 
10 2.0433e-10 1.29931e-10 -4.2037e-11 
14 1.32669e-10 8.07376e-11 -7.70233e-11 
18 2.40759e-10 5.94149e-11 1.51753e-10 
22 5.21062e-10 1.21507e-10 1.06179e-10 
26 4.65462e-10 9.92498e-11 -9.51834e-11 
30 2.38725e-10 4.47144e-11 -1.37274e-10 
34 2.44384e-10 -6.55207e-11 1.71901e-10 
38 5.8061e-10 -1.25347e-10 1.27723e-10 
42 5.1554e-10 -1.00338e-10 -1.14978e-10 
46 2.2149e-10 -4.67267e-11 -1.47542e-10 
50 1.39745e-10 -1.0889e-10 1.02722e-10 
54 2.64372e-10 -1.73867e-10 5.96639e-11 
58 2.47905e-10 -1.51116e-10 -6.2653e-11 
62 1.05889e-10 -6.60546e-11 -7.76013e-11 
66 7.94594e-11 9.43769e-11 5.94022e-11 
70 1.30662e-10 1.54822e-10 3.66643e-11 
74 7.83413e-11 1.21612e-10 -1.66139e-11 
78 5.41884e-11 8.53243e-11 -4.57877e-11 
82 3.94506e-11 1.14178e-10 7.03226e-11 
86 6.60202e-11 2.1917e-10 4.69807e-11 
90 5.12634e-11 1.84168e-10 -3.457e-11 
94 2.41512e-11 7.33544e-11 -4.76559e-11 
98 -1.1062e-11 6.60135e-11 4.79389e-11 
102 -1.48653e-11 9.40785e-11 2.62848e-11 
106 -1.19259e-11 9.39934e-11 -2.0409e-11 
110 -4.53434e-12 4.69137e-11 -3.67074e-11 
114 -1.11559e-11 1.60893e-11 1.22106e-11 
118 -1.80796e-11 2.92232e-11 6.614e-12 
122 -1.83344e-11 3.36619e-11 -8.52813e-12 
126 -7.84674e-12 2.33825e-11 -1.73549e-11 
130 8.28925e-11 6.18842e-11 9.34618e-11 
134 1.03629e-10 2.92107e-11 1.26783e-10 
138 1.02148e-10 -2.76969e-11 1.41581e-10 
142 4.43165e-11 -4.24587e-11 6.92516e-11 
146 3.41652e-11 6.31505e-11 9.55147e-11 
150 6.32665e-11 4.19683e-11 1.98978e-10 
154 4.46708e-11 -3.10396e-11 1.68425e-10 
158 1.75748e-11 -5.28191e-11 8.8557e-11 
162 -8.12508e-12 3.96524e-11 5.41094e-11 
166 -1.18299e-11 2.27597e-11 9.72831e-11 
170 -1.06987e-11 -1.98569e-11 8.11338e-11 
174 -2.79647e-12 -3.80771e-11 5.53892e-11 
178 -1.04916e-11 1.3256e-11 1.32909e-11 
182 -1.9922e-11 6.70696e-12 3.37711e-11 
186 -1.42577e-11 -5.87023e-12 2.55916e-11 
190 -1.15426e-11 -1.77666e-11 2.07664e-11 
3 -5.22807e-12 5.73956e-12 5.17528e-12 
7 -8.96413e-12 7.93179e-12 3.52426e-12 
11 -1.86273e-11 1.10651e-11 -3.21648e-12 
15 -7.16057e-12 9.13221e-12 -7.92603e-12 
19 -8.97738e-12 1.72187e-12 7.65971e-12 
23 -1.00824e-11 2.2441e-12 2.30676e-12 
27 -9.34912e-12 2.96145e-12 -4.69137e-12 
31 -1.00608e-11 2.00014e-12 -8.9915e-12 
35 -3.23465e-12 -1.02586e-12 4.1064e-12 
39 -7.30123e-12 -3.01368e-12 2.58357e-12 
43 -7.91692e-12 -2.64167e-12 -2.56573e-12 
47 -8.59495e-12 -2.85291e-12 -6.42939e-12 
51 -8.18879e-12 -4.19166e-12 4.07653e-12 
55 -8.48599e-12 -5.6124e-12 2.13138e-12 
59 -9.93024e-12 -8.85221e-12 -2.50676e-12 
63 -6.57287e-12 -7.38019e-12 -6.84422e-12 
67 6.06663e-11 -7.99632e-11 6.01887e-11 
71 1.31263e-10 -1.82698e-10 4.48564e-11 
75 1.49295e-10 -1.8122e-10 -4.20121e-11 
79 8.72112e-11 -1.0048e-10 -7.82481e-11 
83 2.75539e-11 -8.81848e-11 6.19322e-11 
87 5.33213e-11 -1.98637e-10 4.63733e-11 
91 7.5246e-11 -2.48949e-10 -6.19942e-11 
95 3.56158e-11 -1.1103e-10 -7.90411e-11 
99 -5.60799e-12 -4.7847e-11 2.83808e-11 
103 -1.29003e-11 -8.04984e-11 1.87423e-11 
107 -1.68208e-11 -1.00269e-10 -2.32266e-11 
111 -7.2185e-12 -5.05461e-11 -3.2239e-11 
115 -5.74563e-12 -1.72732e-11 8.01655e-12 
119 -1.12211e-11 -1.67621e-11 5.13016e-12 
123 -1.42893e-11 -1.68226e-11 -4.13476e-12 
127 -1.13852e-11 -1.57837e-11 -1.25451e-11 
131 6.73814e-11 6.76656e-11 -8.90579e-11 
135 1.15361e-10 3.86943e-11 -1.56997e-10 
139 1.64791e-10 -5.17773e-11 -2.08918e-10 
143 9.26936e-11 -8.50958e-11 -9.88355e-11 
147 2.66475e-11 5.69863e-11 -8.28443e-11 
151 5.59485e-11 4.91282e-11 -1.90267e-10 
155 6.23747e-11 -4.45561e-11 -2.03942e-10 
159 3.21625e-11 -6.72236e-11 -9.57583e-11 
163 -4.10549e-12 2.93288e-11 -4.40491e-11 
167 -7.44729e-12 2.17686e-11 -8.54348e-11 
171 -1.41265e-11 -2.27914e-11 -1.02365e-10 
175 -9.15118e-12 -3.55699e-11 -5.23711e-11 
179 -7.18685e-12 8.3139e-12 -1.4236e-11 
183 -1.32277e-11 5.86974e-12 -2.14482e-11 
187 -8.49638e-12 -5.84688e-12 -1.5793e-11 
191 -9.9331e-12 -8.92346e-12 -1.65362e-11 
4 -5.34064e-12 3.78373e-12 4.09514e-12 
8 -6.49876e-12 5.85041e-12 3.73985e-13 
12 -7.17996e-12 6.82955e-12 -2.80492e-12 
16 -6.51455e-12 3.96133e-12 -4.4857e-12 
20 -1.05212e-11 2.92307e-12 7.78352e-12 
24 -8.69411e-12 1.66782e-12 2.29201e-12 
28 -5.48356e-12 1.6828e-12 -1.05682e-12 
32 -1.08556e-11 3.26411e-12 -7.57927e-12 
36 -9.97426e-12 -4.06402e-12 9.72584e-12 
40 -1.00932e-11 -1.43841e-12 2.27157e-12 
44 -8.16067e-12 -1.73643e-12 -1.782e-12 
48 -9.34879e-12 -1.39202e-12 -5.91405e-12 
52 -9.27375e-12 -1.20816e-11 1.1177e-11 
56 -8.57983e-12 -6.01524e-12 1.68078e-12 
60 -1.50038e-11 -1.06504e-11 -2.68552e-12 
64 -9.9701e-12 -9.19593e-12 -8.78175e-12 
68 8.88994e-11 -1.05492e-10 6.46775e-11 
72 1.24575e-10 -1.61625e-10 2.68185e-11 
76 1.05594e-10 -1.46773e-10 -2.87889e-11 
80 5.16246e-11 -8.12249e-11 -4.76207e-11 
84 3.93708e-11 -1.01873e-10 6.68311e-11 
88 5.76497e-11 -1.99851e-10 4.18206e-11 
92 5.33323e-11 -1.81648e-10 -3.7675e-11 
96 2.07474e-11 -9.8434e-11 -6.38283e-11 
100 -6.95135e-12 -4.82664e-11 3.72475e-11 
104 -8.851e-12 -8.82253e-11 2.22276e-11 
108 -6.86955e-12 -8.79724e-11 -2.06205e-11 
112 -3.90019e-12 -4.15113e-11 -3.06733e-11 
116 -8.75198e-12 -1.12799e-11 7.57583e-12 
120 -1.61279e-11 -2.89827e-11 5.59164e-12 
124 -1.75636e-11 -2.6515e-11 -6.08226e-12 
128 -7.36114e-12 -1.45096e-11 -1.27461e-11 
132 8.21221e-11 6.73887e-11 -9.94972e-11 
136 1.16993e-10 2.77677e-11 -1.48097e-10 
140 8.11588e-11 -2.33297e-11 -1.17029e-10 
144 5.9209e-11 -5.02028e-11 -8.08791e-11 
148 3.02037e-11 6.8493e-11 -1.03286e-10 
152 6.94233e-11 4.8529e-11 -2.28335e-10 
156 4.85558e-11 -3.85756e-11 -1.55406e-10 
160 2.14454e-11 -4.68945e-11 -7.78769e-11 
164 -7.05421e-12 3.30448e-11 -4.59374e-11 
168 -1.5316e-11 2.40465e-11 -9.83257e-11 
172 -1.22494e-11 -2.1493e-11 -1.10589e-10 
176 -6.8788e-12 -3.62639e-11 -4.87327e-11 
180 -9.58083e-12 9.31439e-12 -1.19458e-11 
184 -1.61692e-11 4.20986e-12 -2.83475e-11 
188 -1.48519e-11 -6.81026e-12 -2.91579e-11 
192 -7.70593e-12 -1.21257e-11 -1.72706e-11 
