ITEM: TIMESTEP
2500
ITEM: NUMBER OF SURFS
192
ITEM: BOX BOUNDS oo rr rr
0 0.0005
0 0.0005
0 0.0005
ITEM: SURFS id f_f_drag_cumul[1] f_f_drag_cumul[2] f_f_drag_cumul[3] 
1 0 0 0 
5 0 0 0 
9 0 0 0 
13 0 0 0 
17 0 0 0 
21 0 0 0 
25 0 0 0 
29 0 0 0 
33 0 0 0 
37 0 0 0 
41 0 0 0 
45 0 0 0 
49 0 0 0 
53 0 0 0 
57 0 0 0 
61 0 0 0 
65 0 0 0 
69 0 0 0 
73 0 0 0 
77 0 0 0 
81 0 0 0 
85 0 0 0 
89 0 0 0 
93 0 0 0 
97 0 0 0 
101 0 0 0 
105 0 0 0 
109 0 0 0 
113 0 0 0 
117 0 0 0 
121 0 0 0 
125 0 0 0 
129 0 0 0 
133 0 0 0 
137 0 0 0 
141 0 0 0 
145 0 0 0 
149 0 0 0 
153 0 0 0 
157 0 0 0 
161 0 0 0 
165 0 0 0 
169 0 0 0 
173 0 0 0 
177 0 0 0 
181 0 0 0 
185 0 0 0 
189 0 0 0 
2 0 0 0 
6 0 0 0 
10 0 0 0 
14 0 0 0 
18 0 0 0 
22 0 0 0 
26 0 0 0 
30 0 0 0 
34 0 0 0 
38 0 0 0 
42 0 0 0 
46 0 0 0 
50 0 0 0 
54 0 0 0 
58 0 0 0 
62 0 0 0 
66 0 0 0 
70 0 0 0 
74 0 0 0 
78 0 0 0 
82 0 0 0 
86 0 0 0 
90 0 0 0 
94 0 0 0 
98 0 0 0 
102 0 0 0 
106 0 0 0 
110 0 0 0 
114 0 0 0 
118 0 0 0 
122 0 0 0 
126 0 0 0 
130 0 0 0 
134 0 0 0 
138 0 0 0 
142 0 0 0 
146 0 0 0 
150 0 0 0 
154 0 0 0 
158 0 0 0 
162 0 0 0 
166 0 0 0 
170 0 0 0 
174 0 0 0 
178 0 0 0 
182 0 0 0 
186 0 0 0 
190 0 0 0 
3 0 0 0 
7 0 0 0 
11 0 0 0 
15 0 0 0 
19 0 0 0 
23 0 0 0 
27 0 0 0 
31 0 0 0 
35 0 0 0 
39 0 0 0 
43 0 0 0 
47 0 0 0 
51 0 0 0 
55 0 0 0 
59 0 0 0 
63 0 0 0 
67 0 0 0 
71 0 0 0 
75 0 0 0 
79 0 0 0 
83 0 0 0 
87 0 0 0 
91 0 0 0 
95 0 0 0 
99 0 0 0 
103 0 0 0 
107 0 0 0 
111 0 0 0 
115 0 0 0 
119 0 0 0 
123 0 0 0 
127 0 0 0 
131 0 0 0 
135 0 0 0 
139 0 0 0 
143 0 0 0 
147 0 0 0 
151 0 0 0 
155 0 0 0 
159 0 0 0 
163 0 0 0 
167 0 0 0 
171 0 0 0 
175 0 0 0 
179 0 0 0 
183 0 0 0 
187 0 0 0 
191 0 0 0 
4 0 0 0 
8 0 0 0 
12 0 0 0 
16 0 0 0 
20 0 0 0 
24 0 0 0 
28 0 0 0 
32 0 0 0 
36 0 0 0 
40 0 0 0 
44 0 0 0 
48 0 0 0 
52 0 0 0 
56 0 0 0 
60 0 0 0 
64 0 0 0 
68 0 0 0 
72 0 0 0 
76 0 0 0 
80 0 0 0 
84 0 0 0 
88 0 0 0 
92 0 0 0 
96 0 0 0 
100 0 0 0 
104 0 0 0 
108 0 0 0 
112 0 0 0 
116 0 0 0 
120 0 0 0 
124 0 0 0 
128 0 0 0 
132 0 0 0 
136 0 0 0 
140 0 0 0 
144 0 0 0 
148 0 0 0 
152 0 0 0 
156 0 0 0 
160 0 0 0 
164 0 0 0 
168 0 0 0 
172 0 0 0 
176 0 0 0 
180 0 0 0 
184 0 0 0 
188 0 0 0 
192 0 0 0 
ITEM: TIMESTEP
5000
ITEM: NUMBER OF SURFS
192
ITEM: BOX BOUNDS oo rr rr
0 0.0005
0 0.0005
0 0.0005
ITEM: SURFS id f_f_drag_cumul[1] f_f_drag_cumul[2] f_f_drag_cumul[3] 
1 1.27165e-10 8.35348e-11 8.36902e-11 
5 3.2878e-10 1.98302e-10 6.92659e-11 
9 2.41698e-10 1.67216e-10 -4.78011e-11 
13 1.266e-10 8.88489e-11 -8.53964e-11 
17 2.43589e-10 4.41245e-11 1.69892e-10 
21 5.4831e-10 9.75228e-11 1.23034e-10 
25 6.32584e-10 1.2431e-10 -1.5899e-10 
29 2.92759e-10 6.10042e-11 -1.79075e-10 
33 1.52712e-10 -3.82661e-11 8.93954e-11 
37 4.58869e-10 -1.18233e-10 1.15502e-10 
41 5.30034e-10 -1.04464e-10 -1.207e-10 
45 2.70307e-10 -5.38137e-11 -1.56268e-10 
49 1.69476e-10 -8.80703e-11 9.16934e-11 
53 1.95401e-10 -1.2561e-10 3.0716e-11 
57 1.90888e-10 -1.23615e-10 -3.76879e-11 
61 1.08005e-10 -8.34552e-11 -7.42075e-11 
65 9.16585e-11 1.28807e-10 9.49754e-11 
69 1.1219e-10 1.42856e-10 3.50426e-11 
73 1.4468e-10 1.69867e-10 -3.5395e-11 
77 1.17219e-10 1.37169e-10 -1.09196e-10 
81 8.09102e-12 5.75896e-11 4.78728e-11 
85 4.2804e-11 1.85081e-10 4.09339e-11 
89 8.74231e-11 3.35103e-10 -9.25266e-11 
93 3.92813e-11 1.30634e-10 -9.77317e-11 
97 -6.39129e-12 6.11649e-11 2.73658e-11 
101 -1.77022e-11 9.10888e-11 1.92288e-11 
105 -2.01271e-11 1.13127e-10 -2.24915e-11 
109 -4.7519e-12 5.62206e-11 -3.31257e-11 
113 -5.81025e-12 1.8789e-11 8.15245e-12 
117 -9.29684e-12 1.65693e-11 3.33634e-12 
121 -1.46016e-11 2.36116e-11 -1.10851e-12 
125 -1.0976e-11 1.02439e-11 -8.05903e-12 
129 4.54821e-11 4.65964e-11 7.08703e-11 
133 8.75048e-11 3.66531e-11 1.1422e-10 
137 1.48486e-10 -5.40684e-11 1.98683e-10 
141 7.57126e-11 -5.83671e-11 7.65445e-11 
145 2.08204e-11 2.90477e-11 4.72586e-11 
149 4.80442e-11 5.09391e-11 1.946e-10 
153 5.40393e-11 -4.07313e-11 1.60977e-10 
157 3.15356e-11 -5.28393e-11 7.82707e-11 
161 -1.98154e-12 2.27327e-11 3.69991e-11 
165 -1.54063e-11 2.61176e-11 7.77217e-11 
169 -8.70358e-12 -1.1974e-11 8.70404e-11 
173 -7.30741e-12 -2.49407e-11 5.11152e-11 
177 -9.67909e-12 1.35701e-11 2.23251e-11 
181 -3.73607e-12 4.27062e-12 1.29556e-11 
185 -1.20598e-11 -4.51207e-12 2.07099e-11 
189 -7.26368e-12 -8.16306e-12 1.1383e-11 
2 1.26377e-10 9.31397e-11 7.37147e-11 
6 2.31186e-10 1.64878e-10 3.84495e-11 
10 1.6023e-10 9.2756e-11 -2.90507e-11 
14 1.1199e-10 6.14633e-11 -6.55764e-11 
18 2.00289e-10 6.52942e-11 1.24424e-10 
22 4.42731e-10 8.32079e-11 8.52417e-11 
26 4.32286e-10 8.20302e-11 -1.04642e-10 
30 2.47697e-10 4.15034e-11 -1.35362e-10 
34 2.452e-10 -5.85257e-11 1.79679e-10 
38 5.49309e-10 -1.13114e-10 1.12048e-10 
42 5.02662e-10 -1.05237e-10 -1.02914e-10 
46 2.3121e-10 -3.80335e-11 -1.52255e-10 
50 1.24172e-10 -1.04368e-10 1.03408e-10 
54 1.92133e-10 -1.43023e-10 4.25376e-11 
58 2.53608e-10 -1.73221e-10 -7.85836e-11 
62 1.15782e-10 -7.44557e-11 -7.91682e-11 
66 1.18828e-10 1.47476e-10 9.54565e-11 
70 9.39408e-11 1.14696e-10 2.30057e-11 
74 7.79729e-11 1.15369e-10 -1.96286e-11 
78 4.82488e-11 6.53357e-11 -3.68806e-11 
82 4.0153e-11 1.13319e-10 7.68319e-11 
86 6.74207e-11 2.1522e-10 3.49755e-11 
90 3.6983e-11 1.42065e-10 -2.77868e-11 
94 2.38715e-11 1.10033e-10 -6.36954e-11 
98 -1.11933e-12 4.58317e-11 3.25371e-11 
102 -1.86715e-11 8.77093e-11 2.57242e-11 
106 -1.89255e-11 1.13721e-10 -3.24977e-11 
110 -5.41013e-12 4.55796e-11 -4.01771e-11 
114 -1.72316e-11 2.71337e-11 1.47649e-11 
118 -3.59103e-12 1.8912e-11 5.00123e-13 
122 -7.30255e-12 1.61273e-11 -1.29067e-12 
126 -6.77235e-12 1.74642e-11 -1.35791e-11 
130 9.67861e-11 7.3974e-11 1.20534e-10 
134 8.98901e-11 1.87395e-11 1.21442e-10 
138 8.36581e-11 -2.61544e-11 1.22554e-10 
142 4.59591e-11 -3.95997e-11 6.60633e-11 
146 2.98672e-11 7.95436e-11 1.18751e-10 
150 5.63232e-11 3.34208e-11 1.71318e-10 
154 6.96609e-11 -5.8295e-11 1.86813e-10 
158 3.25585e-11 -6.94082e-11 1.15936e-10 
162 -5.16816e-12 3.8614e-11 5.9674e-11 
166 -4.70683e-12 1.54271e-11 7.23498e-11 
170 -1.01584e-11 -2.21119e-11 1.0515e-10 
174 -1.82799e-12 -1.95079e-11 2.56795e-11 
178 -1.21507e-11 1.53712e-11 1.94241e-11 
182 -2.07576e-11 1.09694e-11 3.1791e-11 
186 -1.5193e-11 -6.78173e-12 2.1825e-11 
190 -5.80014e-12 -1.1591e-11 1.12215e-11 
3 -1.08319e-12 3.38174e-12 1.66883e-12 
7 -3.77906e-12 2.63809e-12 -5.04772e-13 
11 -1.38687e-11 1.09626e-11 -2.36004e-12 
15 -1.97824e-12 3.45366e-12 -1.92397e-12 
19 -1.25021e-11 3.51999e-12 1.18219e-11 
23 -1.66463e-11 5.1839e-12 3.06224e-12 
27 -2.13741e-11 4.77157e-12 -8.58069e-12 
31 -3.81824e-12 1.83648e-12 -3.25783e-12 
35 -1.08995e-11 -1.76414e-12 6.41164e-12 
39 -3.65092e-12 -2.33703e-12 1.36272e-12 
43 -6.96795e-12 -3.17948e-12 -3.02603e-12 
47 -1.99543e-11 -4.32371e-12 -1.14546e-11 
51 -4.81246e-12 -2.60079e-12 2.01346e-12 
55 -1.20604e-11 -7.23835e-12 9.47488e-13 
59 -1.52226e-11 -1.16497e-11 -4.60335e-12 
63 -8.00819e-12 -6.71329e-12 -5.71811e-12 
67 9.24616e-11 -1.1505e-10 8.17297e-11 
71 1.30947e-10 -1.73753e-10 5.30636e-11 
75 1.66508e-10 -2.21854e-10 -5.07788e-11 
79 1.0662e-10 -9.9206e-11 -9.24473e-11 
83 3.18052e-11 -9.12515e-11 6.60403e-11 
87 6.10679e-11 -2.31195e-10 5.63301e-11 
91 6.83707e-11 -2.09179e-10 -4.85355e-11 
95 4.14886e-11 -8.78531e-11 -6.47494e-11 
99 -5.69924e-12 -6.90201e-11 4.84358e-11 
103 -9.60874e-12 -7.40578e-11 1.50683e-11 
107 -3.02308e-11 -1.16032e-10 -3.33993e-11 
111 -8.43771e-12 -4.44958e-11 -2.20452e-11 
115 -7.18341e-12 -2.31062e-11 1.19442e-11 
119 -1.18084e-11 -2.55195e-11 3.77711e-12 
123 -7.51888e-12 -8.59231e-12 -5.61655e-13 
127 -1.18626e-11 -1.16166e-11 -1.12075e-11 
131 6.84387e-11 6.82084e-11 -8.53282e-11 
135 1.30591e-10 6.24695e-11 -1.72997e-10 
139 1.41419e-10 -5.24827e-11 -1.77783e-10 
143 8.24496e-11 -7.54069e-11 -9.59328e-11 
147 1.6846e-11 4.39737e-11 -5.62248e-11 
151 6.341e-11 5.40763e-11 -2.60129e-10 
155 5.87886e-11 -4.85538e-11 -2.03757e-10 
159 2.21145e-11 -4.5826e-11 -7.04334e-11 
163 -1.13192e-12 4.45378e-11 -6.15978e-11 
167 -5.3581e-12 1.58232e-11 -9.00646e-11 
171 -1.94151e-11 -2.47784e-11 -1.21194e-10 
175 -2.0109e-12 -2.95856e-11 -3.54941e-11 
179 -5.52447e-12 9.76173e-12 -1.62202e-11 
183 -5.80825e-12 3.18782e-12 -8.3135e-12 
187 -1.05529e-11 -5.18281e-12 -1.36856e-11 
191 -1.3698e-11 -1.3246e-11 -2.05913e-11 
4 -1.1955e-11 7.52303e-12 1.0883e-11 
8 -4.25341e-12 3.4058e-12 2.46769e-12 
12 -1.74119e-12 1.50269e-13 -2.9101e-13 
16 -1.6238e-11 1.06711e-11 -1.0427e-11 
20 -1.73316e-11 8.90701e-13 1.08749e-11 
24 -1.22604e-11 6.66939e-12 6.81983e-12 
28 -1.50499e-11 3.88351e-12 -3.47889e-12 
32 -7.40729e-12 1.20399e-12 -4.44315e-12 
36 -1.19721e-11 -2.73618e-12 9.08924e-12 
40 -2.13656e-11 -6.01688e-12 7.37068e-12 
44 -5.32223e-12 -9.23431e-13 -3.42939e-14 
48 -7.99134e-12 -4.23443e-12 -8.0137e-12 
52 -1.30818e-11 -1.23848e-11 1.2616e-11 
56 -2.19178e-11 -2.14545e-11 6.12265e-12 
60 -1.98752e-11 -1.80459e-11 -9.68385e-12 
64 -5.51391e-12 -1.10762e-11 -1.25914e-11 
68 1.08611e-10 -1.2949e-10 8.8624e-11 
72 1.22416e-10 -1.69808e-10 3.60188e-11 
76 7.9958e-11 -1.1698e-10 -2.82672e-11 
80 4.57821e-11 -7.63908e-11 -5.20689e-11 
84 3.61608e-11 -1.07461e-10 5.99638e-11 
88 7.37259e-11 -1.9988e-10 2.93955e-11 
92 5.5742e-11 -1.86692e-10 -3.54938e-11 
96 2.31857e-11 -7.978e-11 -5.6266e-11 
100 -1.35713e-11 -6.31504e-11 3.8012e-11 
104 -9.26608e-12 -6.92442e-11 2.36501e-11 
108 -2.03104e-11 -1.12643e-10 -2.30869e-11 
112 -7.30247e-12 -4.94317e-11 -3.49541e-11 
116 -9.37587e-12 -1.31698e-11 6.10598e-12 
120 -1.1387e-11 -2.70507e-11 5.83621e-12 
124 -5.20771e-12 -5.11386e-12 -1.01734e-12 
128 -3.12578e-12 -1.52092e-11 -7.58589e-12 
132 7.10358e-11 5.54982e-11 -8.41871e-11 
136 9.6501e-11 2.32465e-11 -1.20533e-10 
140 7.91857e-11 -2.43568e-11 -1.14491e-10 
144 3.90387e-11 -3.86429e-11 -6.96189e-11 
148 2.82879e-11 6.24766e-11 -9.37669e-11 
152 6.64721e-11 2.44711e-11 -1.81762e-10 
156 4.88455e-11 -2.79262e-11 -1.434e-10 
160 2.34593e-11 -5.66801e-11 -8.72961e-11 
164 -5.90906e-12 4.0789e-11 -4.96492e-11 
168 -2.21199e-11 3.34777e-11 -1.27093e-10 
172 -1.41263e-11 -2.523e-11 -9.42487e-11 
176 -1.12338e-11 -4.77576e-11 -6.26297e-11 
180 -1.2183e-11 1.20619e-11 -1.25978e-11 
184 -8.85091e-12 5.3695e-12 -1.4929e-11 
188 -2.06883e-11 -3.11867e-12 -3.50018e-11 
192 -9.3138e-12 -1.94902e-11 -2.33249e-11 
