ITEM: TIMESTEP
3000
ITEM: NUMBER OF SURFS
192
ITEM: BOX BOUNDS oo rr rr
0 0.0005
0 0.0005
0 0.0005
ITEM: SURFS id f_f_drag_blocks[1] f_f_drag_blocks[2] f_f_drag_blocks[3] 
1 0 0 0 
5 0 0 0 
9 0 0 0 
13 0 0 0 
17 0 0 0 
21 0 0 0 
25 0 0 0 
29 0 0 0 
33 0 0 0 
37 0 0 0 
41 0 0 0 
45 0 0 0 
49 0 0 0 
53 0 0 0 
57 0 0 0 
61 0 0 0 
65 0 0 0 
69 0 0 0 
73 0 0 0 
77 0 0 0 
81 0 0 0 
85 0 0 0 
89 0 0 0 
93 0 0 0 
97 0 0 0 
101 0 0 0 
105 0 0 0 
109 0 0 0 
113 0 0 0 
117 0 0 0 
121 0 0 0 
125 0 0 0 
129 0 0 0 
133 0 0 0 
137 0 0 0 
141 0 0 0 
145 0 0 0 
149 0 0 0 
153 0 0 0 
157 0 0 0 
161 0 0 0 
165 0 0 0 
169 0 0 0 
173 0 0 0 
177 0 0 0 
181 0 0 0 
185 0 0 0 
189 0 0 0 
2 0 0 0 
6 0 0 0 
10 0 0 0 
14 0 0 0 
18 0 0 0 
22 0 0 0 
26 0 0 0 
30 0 0 0 
34 0 0 0 
38 0 0 0 
42 0 0 0 
46 0 0 0 
50 0 0 0 
54 0 0 0 
58 0 0 0 
62 0 0 0 
66 0 0 0 
70 0 0 0 
74 0 0 0 
78 0 0 0 
82 0 0 0 
86 0 0 0 
90 0 0 0 
94 0 0 0 
98 0 0 0 
102 0 0 0 
106 0 0 0 
110 0 0 0 
114 0 0 0 
118 0 0 0 
122 0 0 0 
126 0 0 0 
130 0 0 0 
134 0 0 0 
138 0 0 0 
142 0 0 0 
146 0 0 0 
150 0 0 0 
154 0 0 0 
158 0 0 0 
162 0 0 0 
166 0 0 0 
170 0 0 0 
174 0 0 0 
178 0 0 0 
182 0 0 0 
186 0 0 0 
190 0 0 0 
3 0 0 0 
7 0 0 0 
11 0 0 0 
15 0 0 0 
19 0 0 0 
23 0 0 0 
27 0 0 0 
31 0 0 0 
35 0 0 0 
39 0 0 0 
43 0 0 0 
47 0 0 0 
51 0 0 0 
55 0 0 0 
59 0 0 0 
63 0 0 0 
67 0 0 0 
71 0 0 0 
75 0 0 0 
79 0 0 0 
83 0 0 0 
87 0 0 0 
91 0 0 0 
95 0 0 0 
99 0 0 0 
103 0 0 0 
107 0 0 0 
111 0 0 0 
115 0 0 0 
119 0 0 0 
123 0 0 0 
127 0 0 0 
131 0 0 0 
135 0 0 0 
139 0 0 0 
143 0 0 0 
147 0 0 0 
151 0 0 0 
155 0 0 0 
159 0 0 0 
163 0 0 0 
167 0 0 0 
171 0 0 0 
175 0 0 0 
179 0 0 0 
183 0 0 0 
187 0 0 0 
191 0 0 0 
4 0 0 0 
8 0 0 0 
12 0 0 0 
16 0 0 0 
20 0 0 0 
24 0 0 0 
28 0 0 0 
32 0 0 0 
36 0 0 0 
40 0 0 0 
44 0 0 0 
48 0 0 0 
52 0 0 0 
56 0 0 0 
60 0 0 0 
64 0 0 0 
68 0 0 0 
72 0 0 0 
76 0 0 0 
80 0 0 0 
84 0 0 0 
88 0 0 0 
92 0 0 0 
96 0 0 0 
100 0 0 0 
104 0 0 0 
108 0 0 0 
112 0 0 0 
116 0 0 0 
120 0 0 0 
124 0 0 0 
128 0 0 0 
132 0 0 0 
136 0 0 0 
140 0 0 0 
144 0 0 0 
148 0 0 0 
152 0 0 0 
156 0 0 0 
160 0 0 0 
164 0 0 0 
168 0 0 0 
172 0 0 0 
176 0 0 0 
180 0 0 0 
184 0 0 0 
188 0 0 0 
192 0 0 0 
ITEM: TIMESTEP
4000
ITEM: NUMBER OF SURFS
192
ITEM: BOX BOUNDS oo rr rr
0 0.0005
0 0.0005
0 0.0005
ITEM: SURFS id f_f_drag_blocks[1] f_f_drag_blocks[2] f_f_drag_blocks[3] 
1 1.33407e-10 7.29112e-11 9.39869e-11 
5 3.59438e-10 1.99909e-10 8.28892e-11 
9 1.82973e-10 1.32488e-10 -4.95905e-11 
13 8.60629e-11 6.36509e-11 -4.64166e-11 
17 1.82288e-10 4.59631e-11 1.24435e-10 
21 3.12117e-10 7.08817e-11 5.49649e-11 
25 6.16388e-10 1.40559e-10 -1.25323e-10 
29 1.68927e-10 3.33773e-11 -1.38135e-10 
33 1.68194e-10 -5.21941e-11 8.48385e-11 
37 3.41401e-10 -5.73327e-11 7.1472e-11 
41 5.52391e-10 -1.1609e-10 -1.06233e-10 
45 2.98758e-10 -1.08762e-10 -2.03186e-10 
49 1.31268e-10 -6.92431e-11 4.88189e-11 
53 1.44399e-10 -1.03359e-10 2.57004e-11 
57 1.69991e-10 -1.23615e-10 -2.31618e-11 
61 1.36262e-10 -1.03879e-10 -8.06299e-11 
65 6.19788e-11 8.97571e-11 8.09252e-11 
69 7.77607e-11 1.0524e-10 4.41599e-11 
73 2.27292e-10 2.99176e-10 -8.93801e-11 
77 9.85614e-11 1.10717e-10 -8.19925e-11 
81 8.86262e-12 6.64869e-11 4.87407e-11 
85 3.65542e-11 1.5761e-10 3.43682e-11 
89 8.2394e-11 2.43559e-10 -5.97123e-11 
93 2.91835e-11 7.99307e-11 -5.14232e-11 
97 0 0 0 
101 -5.87872e-12 4.11384e-11 1.48439e-11 
105 -1.85815e-11 1.21057e-10 -4.53334e-11 
109 -1.62531e-11 8.8375e-11 -5.7406e-11 
113 0 0 0 
117 -9.16437e-12 1.59113e-11 7.21833e-12 
121 -3.71207e-12 2.04593e-11 -3.34245e-14 
125 0 0 0 
129 8.79333e-11 1.11327e-10 9.89754e-11 
133 1.71084e-10 7.05579e-11 2.41282e-10 
137 1.36833e-10 -5.77721e-11 1.80967e-10 
141 7.0896e-11 -8.17416e-11 8.50739e-11 
145 5.76016e-12 1.89311e-11 5.09602e-11 
149 6.73205e-11 6.38772e-11 1.98385e-10 
153 8.94901e-11 -5.35198e-11 2.51074e-10 
157 4.64737e-11 -4.30021e-11 9.92028e-11 
161 -9.7539e-12 2.56313e-11 1.07436e-10 
165 -7.93263e-12 1.14728e-12 4.96699e-11 
169 -3.21495e-11 -3.03767e-11 1.29904e-10 
173 -2.22587e-11 -8.33444e-11 9.99123e-11 
177 0 0 0 
181 -1.9784e-11 3.49816e-12 1.37918e-11 
185 -8.02529e-12 -1.29871e-11 2.31641e-11 
189 -1.26106e-11 -6.74948e-12 3.14209e-11 
2 1.17443e-10 8.92769e-11 6.04364e-11 
6 5.85231e-11 3.00325e-11 1.11169e-11 
10 1.96342e-10 1.14088e-10 -3.68653e-11 
14 1.65969e-10 6.35974e-11 -8.14523e-11 
18 1.93611e-10 6.42341e-11 1.1065e-10 
22 4.70884e-10 1.37502e-10 1.17674e-10 
26 4.36503e-10 7.4519e-11 -8.82313e-11 
30 2.49318e-10 3.88304e-11 -1.35081e-10 
34 2.07523e-10 -5.7318e-11 1.26693e-10 
38 4.29985e-10 -1.02162e-10 7.0751e-11 
42 4.92105e-10 -5.72555e-11 -1.26671e-10 
46 2.3482e-10 6.46262e-12 -1.44484e-10 
50 1.35213e-10 -7.08615e-11 9.32421e-11 
54 2.72018e-10 -1.55959e-10 3.67821e-11 
58 2.28454e-10 -1.39694e-10 -3.34505e-11 
62 9.42041e-11 -7.58391e-11 -9.221e-11 
66 2.57343e-11 4.81966e-11 1.51404e-11 
70 7.73082e-11 1.02559e-10 1.45117e-11 
74 1.42478e-10 1.95956e-10 -1.36792e-11 
78 3.21848e-11 4.205e-11 -2.17284e-11 
82 4.80045e-11 8.89337e-11 6.50132e-11 
86 6.3617e-11 2.69971e-10 5.18147e-11 
90 4.5771e-11 1.28431e-10 -1.71735e-11 
94 4.57541e-11 1.05012e-10 -6.43995e-11 
98 -3.77747e-12 4.57557e-11 2.61456e-11 
102 -2.53699e-11 1.55396e-10 5.30704e-11 
106 -1.51803e-11 8.22314e-11 -2.9764e-11 
110 -2.24161e-11 9.71885e-11 -8.33787e-11 
114 1.53992e-12 6.66917e-12 9.59701e-12 
118 0 0 0 
122 0 0 0 
126 -1.39111e-11 1.76804e-11 -2.46884e-11 
130 6.74036e-11 3.35509e-11 7.14698e-11 
134 1.38361e-10 3.57178e-11 1.78623e-10 
138 2.48047e-10 -1.00863e-10 3.52053e-10 
142 7.3171e-11 -5.41106e-11 9.51571e-11 
146 8.36489e-11 9.67623e-11 1.4992e-10 
150 8.3189e-11 5.75114e-11 2.43542e-10 
154 5.31791e-11 -1.08072e-11 1.40768e-10 
158 3.11024e-11 -5.52261e-11 7.62779e-11 
162 1.55329e-12 2.60141e-11 3.86455e-11 
166 -1.30599e-11 1.82945e-11 7.12231e-11 
170 -9.99942e-12 -1.78774e-11 1.06982e-10 
174 -1.54246e-11 -1.72038e-11 2.61214e-11 
178 -1.04968e-11 1.33519e-11 1.26283e-11 
182 -1.89264e-11 1.31032e-12 4.41368e-11 
186 -6.5203e-12 2.74888e-12 1.6264e-11 
190 -1.60949e-11 -1.25209e-11 2.02304e-11 
3 0 0 0 
7 -5.14328e-11 3.84096e-11 1.18643e-11 
11 -1.6921e-11 8.18291e-12 -6.51409e-12 
15 0 0 0 
19 0 0 0 
23 -2.31088e-11 9.23479e-12 8.07062e-12 
27 0 0 0 
31 -7.17786e-12 4.96883e-12 4.13929e-13 
35 -5.17409e-12 -1.22097e-11 9.36868e-12 
39 -2.68824e-11 -1.34273e-11 1.43457e-11 
43 0 0 0 
47 -1.89051e-11 -1.06602e-12 -1.16162e-11 
51 0 0 0 
55 0 0 0 
59 -1.64122e-11 -2.98964e-11 -4.80204e-12 
63 0 0 0 
67 7.86777e-11 -9.47364e-11 6.92349e-11 
71 1.24475e-10 -1.80322e-10 5.09579e-11 
75 1.93852e-10 -2.1417e-10 -5.90923e-11 
79 9.21555e-11 -9.79056e-11 -7.27121e-11 
83 3.48524e-11 -1.09942e-10 8.55232e-11 
87 2.46013e-11 -7.41828e-11 5.56928e-12 
91 9.8319e-11 -2.72982e-10 -7.19646e-11 
95 4.67182e-11 -1.48128e-10 -9.28177e-11 
99 5.90834e-12 -5.40268e-11 3.39379e-11 
103 -2.32379e-11 -9.0955e-11 -1.07532e-12 
107 -3.03426e-11 -1.07348e-10 -3.2306e-11 
111 1.17225e-12 -2.00887e-11 -9.19966e-12 
115 -1.5137e-11 -4.01972e-11 6.92919e-12 
119 -1.4289e-11 -3.98887e-11 1.3007e-11 
123 0 0 0 
127 -8.76004e-12 -1.83479e-11 -1.7922e-11 
131 5.73762e-11 1.06207e-10 -1.30761e-10 
135 4.11655e-11 2.39825e-11 -7.18464e-11 
139 1.56685e-10 -8.70996e-12 -1.65057e-10 
143 1.05336e-10 -9.47322e-11 -1.13128e-10 
147 3.97654e-11 9.00131e-11 -1.44023e-10 
151 9.83784e-11 7.41251e-11 -2.64579e-10 
155 2.90189e-11 -3.48404e-11 -7.70616e-11 
159 2.15129e-11 -2.89796e-11 -3.55042e-11 
163 -3.98452e-12 2.49059e-11 -2.80291e-11 
167 -2.01071e-11 -2.98399e-12 -1.05212e-10 
171 -7.84464e-12 -2.08724e-11 -8.24431e-11 
175 -2.14183e-11 -5.3337e-11 -1.10119e-10 
179 -2.36383e-11 2.62784e-11 -4.22402e-11 
183 -7.82889e-12 1.39453e-11 -1.23017e-11 
187 -1.09019e-11 2.53098e-13 -2.63637e-11 
191 -1.76062e-11 -2.37496e-11 -3.87591e-11 
4 -1.79923e-11 2.99604e-11 1.94381e-11 
8 -1.60047e-11 1.2689e-11 -7.72821e-14 
12 0 0 0 
16 -1.31669e-11 7.09669e-12 -1.12156e-11 
20 0 0 0 
24 0 0 0 
28 0 0 0 
32 0 0 0 
36 -1.84938e-11 -1.08103e-11 1.28239e-11 
40 0 0 0 
44 -8.84152e-12 -7.4206e-12 -4.10468e-12 
48 -5.22104e-12 -4.67126e-12 -9.06073e-12 
52 -2.53067e-11 -1.46344e-11 1.96562e-11 
56 -1.47914e-11 -2.42692e-11 2.0621e-12 
60 -8.5474e-12 -2.79953e-12 -5.30663e-12 
64 -3.23781e-12 -8.89471e-12 -5.69955e-12 
68 8.70601e-11 -1.28489e-10 6.17433e-11 
72 1.71711e-10 -2.0097e-10 3.41006e-11 
76 8.84981e-11 -1.28575e-10 -1.69144e-11 
80 4.6335e-11 -6.43697e-11 -4.87194e-11 
84 1.06075e-11 -8.83807e-11 5.98541e-11 
88 7.59013e-11 -1.8822e-10 3.0857e-11 
92 4.16589e-11 -1.30439e-10 -6.10374e-11 
96 3.3518e-11 -8.11116e-11 -7.37361e-11 
100 1.98023e-12 -6.62972e-11 3.66849e-11 
104 -1.87599e-11 -1.87975e-10 5.52503e-11 
108 -4.92229e-12 -5.9591e-11 -1.68537e-11 
112 0 0 0 
116 -1.34085e-11 -2.34492e-11 3.37214e-11 
120 -2.27615e-11 -3.81203e-11 9.07471e-12 
124 -7.68089e-12 -1.82841e-11 7.08234e-13 
128 0 0 0 
132 5.39124e-11 2.34216e-11 -5.46837e-11 
136 1.72075e-10 3.01973e-11 -2.00163e-10 
140 1.12746e-10 -4.33364e-11 -1.42321e-10 
144 7.52574e-11 -5.50514e-11 -9.29619e-11 
148 9.97928e-12 5.46391e-11 -8.2342e-11 
152 2.61874e-11 3.13118e-11 -1.28695e-10 
156 5.06941e-11 -5.43621e-11 -2.67811e-10 
160 4.74987e-11 -7.54149e-11 -1.15375e-10 
164 -1.14807e-11 8.90801e-11 -1.211e-10 
168 -1.59711e-11 8.86892e-12 -5.50628e-11 
172 -8.75808e-12 -1.77657e-11 -9.67518e-11 
176 -7.51119e-12 -3.71582e-11 -8.12523e-11 
180 5.48083e-13 1.2708e-11 -1.21949e-11 
184 0 0 0 
188 -2.01446e-12 2.13902e-12 -1.19996e-11 
192 -1.49664e-11 -1.61858e-11 -2.69031e-11 
ITEM: TIMESTEP
5000
ITEM: NUMBER OF SURFS
192
ITEM: BOX BOUNDS oo rr rr
0 0.0005
0 0.0005
0 0.0005
ITEM: SURFS id f_f_drag_blocks[1] f_f_drag_blocks[2] f_f_drag_blocks[3] 
1 1.41663e-10 8.56865e-11 1.00764e-10 
5 1.63465e-10 1.31612e-10 2.26689e-11 
9 3.2185e-10 2.23495e-10 -9.1991e-11 
13 9.96704e-11 7.26333e-11 -7.42356e-11 
17 1.72236e-10 4.7365e-11 1.46785e-10 
21 6.01537e-10 1.00568e-10 1.43372e-10 
25 5.85192e-10 1.21424e-10 -1.49067e-10 
29 2.61118e-10 5.17519e-11 -1.65592e-10 
33 1.52772e-10 -2.53885e-11 8.03777e-11 
37 7.25617e-10 -1.57679e-10 1.24833e-10 
41 4.72614e-10 -1.00462e-10 -5.8624e-11 
45 2.68871e-10 -7.19928e-11 -1.73794e-10 
49 6.97101e-11 -4.14026e-11 4.29873e-11 
53 1.29454e-10 -7.36226e-11 1.69006e-11 
57 1.97172e-10 -1.37057e-10 -4.1145e-11 
61 6.52219e-11 -6.54e-11 -3.01947e-11 
65 4.29204e-11 6.08115e-11 6.26793e-11 
69 1.15107e-10 1.70713e-10 4.67264e-11 
73 1.54358e-10 1.91355e-10 -4.60534e-11 
77 2.08586e-10 2.11976e-10 -1.92316e-10 
81 1.00534e-11 9.23465e-11 7.16927e-11 
85 3.78123e-11 2.47572e-10 6.25004e-11 
89 1.10369e-10 2.80785e-10 -8.30327e-11 
93 5.61688e-11 1.39079e-10 -9.89998e-11 
97 -2.33679e-11 1.04362e-10 4.64994e-11 
101 -2.25327e-11 1.05498e-10 1.85635e-11 
105 4.3099e-12 4.78137e-11 1.32766e-11 
109 -1.56756e-11 6.43677e-11 -2.95856e-11 
113 0 0 0 
117 -1.88459e-11 3.77632e-11 -1.72218e-12 
121 -1.78697e-11 3.83585e-11 -6.96429e-12 
125 -2.52823e-11 6.15162e-11 -3.07068e-11 
129 5.79873e-11 6.42513e-11 9.3666e-11 
133 1.85585e-10 7.44274e-11 2.55973e-10 
137 1.39476e-10 -5.55602e-11 1.67411e-10 
141 1.108e-10 -6.92035e-11 1.06796e-10 
145 2.90259e-11 8.3234e-11 1.16524e-10 
149 6.44258e-11 6.73661e-11 2.00649e-10 
153 4.04826e-11 -5.359e-11 1.92957e-10 
157 2.34782e-11 -7.55561e-11 6.30071e-11 
161 -5.48178e-12 4.34739e-12 9.65044e-12 
165 -6.06568e-12 1.94807e-11 1.73201e-10 
169 -1.26786e-11 -6.98287e-12 5.05617e-11 
173 -2.15682e-11 -6.23827e-11 1.00004e-10 
177 -5.0566e-12 -5.1827e-13 1.70442e-11 
181 -8.56033e-12 1.573e-11 3.14562e-11 
185 -1.66899e-11 2.41926e-12 2.67125e-11 
189 -1.11826e-11 -5.74006e-12 1.62803e-11 
2 2.19961e-10 1.35719e-10 1.00656e-10 
6 1.9238e-10 1.30708e-10 7.29796e-12 
10 2.22058e-10 1.00968e-10 -4.01344e-11 
14 1.27097e-10 7.40619e-11 -5.12276e-11 
18 3.73258e-10 5.32941e-11 1.91148e-10 
22 4.90301e-10 9.91713e-11 6.87719e-11 
26 5.83025e-10 1.42087e-10 -1.19472e-10 
30 1.87812e-10 2.71264e-11 -9.19174e-11 
34 1.93337e-10 -5.09002e-11 1.21837e-10 
38 4.67485e-10 -9.66789e-11 9.71834e-11 
42 5.78693e-10 -1.08803e-10 -1.24732e-10 
46 1.23753e-10 -1.27737e-11 -6.38151e-11 
50 1.65578e-10 -1.19384e-10 6.58641e-11 
54 2.64735e-10 -1.99559e-10 5.54744e-11 
58 2.48833e-10 -1.79821e-10 -5.66669e-11 
62 2.1407e-10 -1.40857e-10 -1.53738e-10 
66 8.80053e-11 1.12735e-10 5.15729e-11 
70 7.63421e-11 1.0186e-10 2.22879e-11 
74 1.38695e-10 2.30002e-10 -6.31023e-11 
78 5.29722e-11 1.16094e-10 -6.50871e-11 
82 6.74562e-12 1.1605e-11 5.22721e-12 
86 9.92224e-11 2.56128e-10 7.299e-11 
90 6.7961e-11 1.49987e-10 -3.64867e-11 
94 2.08835e-11 8.38341e-11 -2.82662e-11 
98 -5.4491e-12 2.60529e-11 1.70837e-11 
102 -2.3287e-11 6.1897e-11 2.47932e-11 
106 -2.1749e-11 1.106e-10 -1.84602e-11 
110 7.88737e-12 1.14058e-10 -8.91872e-11 
114 -1.75842e-11 2.69384e-11 3.04421e-11 
118 -1.21657e-11 1.92e-11 5.92462e-12 
122 -3.41876e-12 2.37545e-11 -4.08093e-13 
126 -2.41852e-11 5.92356e-11 -4.23089e-11 
130 9.62552e-11 7.18775e-11 1.27673e-10 
134 1.90237e-10 5.82971e-11 2.57665e-10 
138 1.02067e-10 -2.64363e-11 1.2407e-10 
142 7.07209e-12 -6.83114e-12 8.78841e-12 
146 7.7109e-11 1.1461e-10 1.43581e-10 
150 8.49064e-11 5.00671e-11 2.7525e-10 
154 3.72273e-11 -3.46589e-11 1.38557e-10 
158 1.82695e-11 -5.23363e-11 8.98494e-11 
162 -8.42425e-12 7.0018e-11 9.41209e-11 
166 -1.62611e-12 7.1046e-12 3.97705e-11 
170 -2.82269e-11 -4.38288e-11 7.28125e-11 
174 -5.56391e-12 -2.11398e-11 3.22399e-11 
178 -2.14204e-11 2.72054e-11 4.45285e-11 
182 -1.52101e-11 4.17882e-12 2.43749e-11 
186 -2.1249e-11 -2.05728e-11 6.63384e-11 
190 -1.89918e-11 -1.20417e-11 1.26233e-11 
3 -1.51178e-11 7.36745e-12 6.08029e-12 
7 1.27528e-12 7.18797e-12 1.98171e-12 
11 -2.75077e-11 2.05868e-11 -1.36386e-11 
15 0 0 0 
19 -1.31676e-11 1.97944e-12 1.63073e-11 
23 -5.33522e-12 1.61598e-12 8.4845e-12 
27 0 0 0 
31 0 0 0 
35 -2.54763e-11 -7.34307e-12 1.46701e-11 
39 -8.62418e-12 -3.15894e-12 -5.11745e-12 
43 -2.69592e-12 -4.85008e-12 6.972e-13 
47 0 0 0 
51 -2.4678e-11 -9.30605e-12 2.03852e-11 
55 0 0 0 
59 -1.66715e-11 -2.15006e-11 -1.05592e-11 
63 0 0 0 
67 4.66104e-11 -4.31588e-11 3.38741e-11 
71 1.23246e-10 -1.61807e-10 3.15506e-11 
75 1.71328e-10 -2.60575e-10 -6.16622e-11 
79 1.12572e-10 -1.23499e-10 -1.00863e-10 
83 -6.67986e-12 -2.96589e-11 2.03621e-11 
87 6.20292e-11 -1.60282e-10 2.14581e-11 
91 6.38433e-11 -1.92299e-10 -7.4412e-11 
95 6.29733e-11 -1.13364e-10 -9.27224e-11 
99 -1.50561e-11 -9.91789e-11 4.728e-11 
103 -2.51196e-12 -2.88286e-11 9.48804e-12 
107 -2.11281e-11 -1.14396e-10 -2.76401e-11 
111 -1.70951e-11 -9.46421e-11 -7.37335e-11 
115 -4.44881e-12 -5.90323e-12 3.18937e-12 
119 0 0 0 
123 -5.72655e-12 -1.40814e-11 -5.70253e-12 
127 -4.98014e-12 -4.73359e-12 -5.64333e-12 
131 4.90577e-11 6.00974e-11 -7.06784e-11 
135 1.30581e-10 6.92109e-11 -1.92365e-10 
139 1.51054e-10 -4.27705e-11 -1.83897e-10 
143 7.71676e-11 -8.65346e-11 -8.46072e-11 
147 2.30868e-11 3.96436e-11 -6.79581e-11 
151 4.39938e-11 3.13293e-11 -1.9404e-10 
155 8.07588e-11 -8.93401e-11 -2.71484e-10 
159 5.6555e-11 -8.2983e-11 -9.72703e-11 
163 2.87739e-12 2.55579e-11 -3.65414e-11 
167 -5.76565e-12 8.14579e-12 -4.83977e-11 
171 -9.51777e-12 -1.13771e-11 -8.01765e-11 
175 -1.52268e-11 -2.59875e-11 -4.37919e-11 
179 0 0 0 
183 -9.56339e-12 1.5913e-12 -2.13964e-11 
187 -6.72399e-12 -2.83572e-12 -1.31253e-11 
191 -1.63563e-11 -1.84985e-11 -3.72098e-11 
4 -2.53729e-11 1.59867e-11 9.26459e-12 
8 -1.28731e-11 1.41794e-11 1.79019e-11 
12 -2.03361e-11 5.30012e-12 -7.50688e-12 
16 0 0 0 
20 -1.8627e-11 1.68076e-11 2.72117e-11 
24 0 0 0 
28 -3.1982e-11 1.98458e-11 -3.08398e-12 
32 0 0 0 
36 0 0 0 
40 -1.14142e-11 -2.13434e-12 7.18608e-12 
44 -1.84066e-11 -5.32498e-12 -4.8716e-12 
48 -4.18511e-12 1.39527e-12 -6.90182e-12 
52 -1.25803e-11 -1.01953e-11 5.19753e-13 
56 -1.4458e-11 -1.42976e-11 5.18431e-12 
60 0 0 0 
64 -5.91316e-12 4.38168e-12 -1.27636e-11 
68 4.70407e-11 -4.83544e-11 5.12044e-11 
72 8.1782e-11 -1.14298e-10 2.32496e-11 
76 1.37812e-10 -2.29945e-10 -2.91913e-11 
80 5.49206e-11 -8.94511e-11 -3.93237e-11 
84 1.8989e-11 -4.21724e-11 4.15577e-11 
88 6.46782e-11 -1.66633e-10 1.77663e-11 
92 4.32765e-11 -2.1874e-10 -7.1631e-11 
96 2.64914e-11 -1.1796e-10 -6.62677e-11 
100 1.03933e-11 -4.3709e-11 3.6898e-11 
104 -7.57755e-12 -1.39827e-10 3.76921e-11 
108 -1.8341e-11 -1.1264e-10 -1.80831e-11 
112 -1.78262e-11 -5.15261e-11 -3.56895e-11 
116 0 0 0 
120 -2.32828e-11 -5.17999e-11 9.43546e-12 
124 -8.99135e-12 -1.84968e-11 2.4524e-12 
128 1.29795e-13 -1.16699e-11 -1.9306e-11 
132 7.01473e-11 7.26759e-11 -1.03745e-10 
136 1.16343e-10 2.34934e-11 -1.72045e-10 
140 6.90575e-11 -3.70106e-11 -9.15501e-11 
144 1.55129e-10 -1.41278e-10 -2.18623e-10 
148 2.49826e-11 5.45833e-11 -9.27448e-11 
152 7.10023e-11 6.21045e-11 -2.30603e-10 
156 5.49242e-11 -3.02225e-13 -1.54921e-10 
160 2.58868e-11 -5.65616e-11 -8.58603e-11 
164 0 0 0 
168 -3.3283e-11 4.21528e-11 -1.07658e-10 
172 -3.83096e-12 -5.70158e-11 -1.72469e-10 
176 -2.15342e-11 -4.81887e-11 -6.46286e-11 
180 -9.87095e-12 1.12482e-12 -8.55483e-12 
184 -9.31525e-12 2.55029e-12 -5.77394e-12 
188 -2.18413e-11 -2.35626e-12 -1.76221e-11 
192 -5.69357e-12 -4.07663e-12 -1.97052e-11 
