ITEM: TIMESTEP
100000
ITEM: NUMBER OF SURFS
192
ITEM: BOX BOUNDS oo rr rr
0 0.0005
0 0.0005
0 0.0005
ITEM: SURFS id f_f_drag_cumul[1] f_f_drag_cumul[2] f_f_drag_cumul[3] 
1 0 0 0 
5 0 0 0 
9 0 0 0 
13 0 0 0 
17 0 0 0 
21 0 0 0 
25 0 0 0 
29 0 0 0 
33 0 0 0 
37 0 0 0 
41 0 0 0 
45 0 0 0 
49 0 0 0 
53 0 0 0 
57 0 0 0 
61 0 0 0 
65 0 0 0 
69 0 0 0 
73 0 0 0 
77 0 0 0 
81 0 0 0 
85 0 0 0 
89 0 0 0 
93 0 0 0 
97 0 0 0 
101 0 0 0 
105 0 0 0 
109 0 0 0 
113 0 0 0 
117 0 0 0 
121 0 0 0 
125 0 0 0 
129 0 0 0 
133 0 0 0 
137 0 0 0 
141 0 0 0 
145 0 0 0 
149 0 0 0 
153 0 0 0 
157 0 0 0 
161 0 0 0 
165 0 0 0 
169 0 0 0 
173 0 0 0 
177 0 0 0 
181 0 0 0 
185 0 0 0 
189 0 0 0 
2 0 0 0 
6 0 0 0 
10 0 0 0 
14 0 0 0 
18 0 0 0 
22 0 0 0 
26 0 0 0 
30 0 0 0 
34 0 0 0 
38 0 0 0 
42 0 0 0 
46 0 0 0 
50 0 0 0 
54 0 0 0 
58 0 0 0 
62 0 0 0 
66 0 0 0 
70 0 0 0 
74 0 0 0 
78 0 0 0 
82 0 0 0 
86 0 0 0 
90 0 0 0 
94 0 0 0 
98 0 0 0 
102 0 0 0 
106 0 0 0 
110 0 0 0 
114 0 0 0 
118 0 0 0 
122 0 0 0 
126 0 0 0 
130 0 0 0 
134 0 0 0 
138 0 0 0 
142 0 0 0 
146 0 0 0 
150 0 0 0 
154 0 0 0 
158 0 0 0 
162 0 0 0 
166 0 0 0 
170 0 0 0 
174 0 0 0 
178 0 0 0 
182 0 0 0 
186 0 0 0 
190 0 0 0 
3 0 0 0 
7 0 0 0 
11 0 0 0 
15 0 0 0 
19 0 0 0 
23 0 0 0 
27 0 0 0 
31 0 0 0 
35 0 0 0 
39 0 0 0 
43 0 0 0 
47 0 0 0 
51 0 0 0 
55 0 0 0 
59 0 0 0 
63 0 0 0 
67 0 0 0 
71 0 0 0 
75 0 0 0 
79 0 0 0 
83 0 0 0 
87 0 0 0 
91 0 0 0 
95 0 0 0 
99 0 0 0 
103 0 0 0 
107 0 0 0 
111 0 0 0 
115 0 0 0 
119 0 0 0 
123 0 0 0 
127 0 0 0 
131 0 0 0 
135 0 0 0 
139 0 0 0 
143 0 0 0 
147 0 0 0 
151 0 0 0 
155 0 0 0 
159 0 0 0 
163 0 0 0 
167 0 0 0 
171 0 0 0 
175 0 0 0 
179 0 0 0 
183 0 0 0 
187 0 0 0 
191 0 0 0 
4 0 0 0 
8 0 0 0 
12 0 0 0 
16 0 0 0 
20 0 0 0 
24 0 0 0 
28 0 0 0 
32 0 0 0 
36 0 0 0 
40 0 0 0 
44 0 0 0 
48 0 0 0 
52 0 0 0 
56 0 0 0 
60 0 0 0 
64 0 0 0 
68 0 0 0 
72 0 0 0 
76 0 0 0 
80 0 0 0 
84 0 0 0 
88 0 0 0 
92 0 0 0 
96 0 0 0 
100 0 0 0 
104 0 0 0 
108 0 0 0 
112 0 0 0 
116 0 0 0 
120 0 0 0 
124 0 0 0 
128 0 0 0 
132 0 0 0 
136 0 0 0 
140 0 0 0 
144 0 0 0 
148 0 0 0 
152 0 0 0 
156 0 0 0 
160 0 0 0 
164 0 0 0 
168 0 0 0 
172 0 0 0 
176 0 0 0 
180 0 0 0 
184 0 0 0 
188 0 0 0 
192 0 0 0 
ITEM: TIMESTEP
150000
ITEM: NUMBER OF SURFS
192
ITEM: BOX BOUNDS oo rr rr
0 0.0005
0 0.0005
0 0.0005
ITEM: SURFS id f_f_drag_cumul[1] f_f_drag_cumul[2] f_f_drag_cumul[3] 
1 1.27347e-10 8.13645e-11 9.84798e-11 
5 2.82357e-10 1.77309e-10 6.27665e-11 
9 2.81363e-10 1.96854e-10 -7.02617e-11 
13 1.25035e-10 9.61888e-11 -9.2257e-11 
17 2.37546e-10 4.95679e-11 1.61338e-10 
21 5.49269e-10 1.09673e-10 1.19711e-10 
25 5.96079e-10 1.37632e-10 -1.32675e-10 
29 2.4353e-10 5.89613e-11 -1.63415e-10 
33 2.34561e-10 -4.46682e-11 1.37266e-10 
37 4.69026e-10 -9.25152e-11 9.56497e-11 
41 5.64449e-10 -1.2138e-10 -1.0727e-10 
45 2.48903e-10 -6.1686e-11 -1.58457e-10 
49 1.38366e-10 -7.55633e-11 6.73882e-11 
53 2.28168e-10 -1.37217e-10 4.3055e-11 
57 1.99739e-10 -1.38766e-10 -3.72254e-11 
61 1.1486e-10 -7.95538e-11 -6.83716e-11 
65 7.21124e-11 9.32206e-11 7.18373e-11 
69 1.31272e-10 1.80301e-10 4.74636e-11 
73 1.41744e-10 1.7171e-10 -4.29162e-11 
77 9.46618e-11 1.01751e-10 -8.72777e-11 
81 2.33995e-11 8.76973e-11 6.42193e-11 
85 5.86467e-11 2.01342e-10 4.97953e-11 
89 7.20465e-11 2.35267e-10 -5.98942e-11 
93 3.58106e-11 1.06243e-10 -7.77259e-11 
97 -4.35811e-12 3.99241e-11 2.90841e-11 
101 -7.30829e-12 1.01844e-10 2.07497e-11 
105 -1.51541e-11 1.09101e-10 -2.65435e-11 
109 -8.04425e-12 5.61288e-11 -3.69292e-11 
113 -4.2969e-12 1.07661e-11 6.40637e-12 
117 -1.36256e-11 2.50302e-11 4.1711e-12 
121 -1.3615e-11 2.433e-11 -3.69602e-12 
125 -8.70433e-12 1.50824e-11 -7.93897e-12 
129 6.53685e-11 7.04203e-11 8.78838e-11 
133 1.18869e-10 4.22993e-11 1.59898e-10 
137 1.59781e-10 -4.68961e-11 2.03343e-10 
141 8.6194e-11 -7.53399e-11 9.92231e-11 
145 2.31615e-11 5.46083e-11 8.29708e-11 
149 4.96493e-11 4.64974e-11 1.85863e-10 
153 6.60557e-11 -5.5401e-11 2.2501e-10 
157 3.55279e-11 -8.23624e-11 1.18917e-10 
161 -5.84204e-12 3.69195e-11 5.78725e-11 
165 -1.11499e-11 1.70528e-11 8.05076e-11 
169 -1.22919e-11 -1.52649e-11 8.60416e-11 
173 -9.01546e-12 -4.14733e-11 5.97086e-11 
177 -1.02407e-11 1.28596e-11 2.30642e-11 
181 -9.98293e-12 3.03341e-12 1.99528e-11 
185 -9.34792e-12 -3.48873e-12 1.58472e-11 
189 -7.67915e-12 -7.48548e-12 1.38903e-11 
2 1.26184e-10 8.54289e-11 7.54901e-11 
6 2.16821e-10 1.47212e-10 4.67965e-11 
10 1.92199e-10 1.16909e-10 -3.61726e-11 
14 1.19726e-10 6.23426e-11 -6.49628e-11 
18 2.63102e-10 6.0772e-11 1.61405e-10 
22 5.45e-10 1.20189e-10 1.06192e-10 
26 4.47682e-10 9.45566e-11 -8.59295e-11 
30 2.0388e-10 4.05089e-11 -1.23819e-10 
34 2.7739e-10 -6.83964e-11 1.86967e-10 
38 5.66432e-10 -1.1826e-10 1.2983e-10 
42 5.49039e-10 -1.05437e-10 -1.20162e-10 
46 2.30696e-10 -4.6462e-11 -1.59501e-10 
50 1.35472e-10 -1.03858e-10 1.009e-10 
54 2.76785e-10 -1.84555e-10 6.24185e-11 
58 2.50477e-10 -1.54537e-10 -5.88032e-11 
62 1.24091e-10 -7.42503e-11 -8.97522e-11 
66 8.99462e-11 1.03288e-10 6.57545e-11 
70 1.24152e-10 1.57977e-10 3.5727e-11 
74 1.04384e-10 1.47897e-10 -2.78391e-11 
78 4.80898e-11 7.85937e-11 -4.4435e-11 
82 3.62122e-11 1.06082e-10 6.56956e-11 
86 5.94585e-11 1.93523e-10 3.96068e-11 
90 5.26329e-11 1.83321e-10 -3.81186e-11 
94 2.80449e-11 9.16734e-11 -5.87061e-11 
98 -5.57735e-12 4.89018e-11 3.56501e-11 
102 -1.76062e-11 1.13336e-10 2.80643e-11 
106 -1.49673e-11 9.90736e-11 -1.95744e-11 
110 -4.46038e-12 4.90352e-11 -3.75607e-11 
114 -8.10134e-12 1.36682e-11 1.19496e-11 
118 -1.24325e-11 2.65137e-11 6.90343e-12 
122 -1.4919e-11 2.72714e-11 -7.79888e-12 
126 -1.05147e-11 2.08527e-11 -1.4482e-11 
130 8.13826e-11 6.09357e-11 9.74467e-11 
134 1.18653e-10 3.28126e-11 1.54291e-10 
138 1.02904e-10 -3.00774e-11 1.46467e-10 
142 4.68806e-11 -3.97439e-11 7.03811e-11 
146 3.95701e-11 7.80073e-11 1.14212e-10 
150 7.0074e-11 4.54786e-11 2.26198e-10 
154 4.69971e-11 -3.63774e-11 1.66334e-10 
158 2.55332e-11 -5.90037e-11 8.83344e-11 
162 -8.64023e-12 4.28362e-11 5.32697e-11 
166 -1.38706e-11 2.21516e-11 1.03977e-10 
170 -9.37556e-12 -2.06545e-11 8.52655e-11 
174 -4.97114e-12 -3.59598e-11 4.83637e-11 
178 -7.73708e-12 9.24325e-12 1.35783e-11 
182 -1.54366e-11 5.78038e-12 2.68844e-11 
186 -1.56805e-11 -6.97082e-12 3.14822e-11 
190 -8.088e-12 -1.24383e-11 1.79915e-11 
3 -1.08403e-11 7.93713e-12 9.05373e-12 
7 -9.57106e-12 8.77771e-12 3.11606e-12 
11 -1.31714e-11 1.01075e-11 -2.89514e-12 
15 -8.20695e-12 6.7796e-12 -8.39712e-12 
19 -1.13049e-11 3.26131e-12 8.18666e-12 
23 -7.34816e-12 3.0608e-12 1.88269e-12 
27 -1.07369e-11 2.79618e-12 -1.53888e-12 
31 -8.99331e-12 4.06048e-12 -8.53289e-12 
35 -7.35311e-12 -2.12332e-12 5.7522e-12 
39 -6.1715e-12 -2.89117e-12 1.8926e-12 
43 -1.05231e-11 -3.00199e-12 -2.27594e-12 
47 -1.04912e-11 -4.03424e-12 -9.07722e-12 
51 -5.72987e-12 -4.34862e-12 3.12942e-12 
55 -7.77142e-12 -5.07412e-12 1.32311e-12 
59 -7.47483e-12 -6.87374e-12 -2.59086e-12 
63 -5.05249e-12 -5.24255e-12 -4.2884e-12 
67 6.22916e-11 -7.7039e-11 6.13158e-11 
71 1.27493e-10 -1.74789e-10 4.13356e-11 
75 1.46882e-10 -1.92773e-10 -4.81587e-11 
79 8.58689e-11 -9.83042e-11 -7.82168e-11 
83 2.81236e-11 -9.77016e-11 6.9791e-11 
87 5.70689e-11 -1.97316e-10 4.95662e-11 
91 6.94951e-11 -2.12593e-10 -5.08024e-11 
95 4.41803e-11 -1.31985e-10 -9.87545e-11 
99 -6.38437e-12 -5.46532e-11 3.08762e-11 
103 -8.32699e-12 -7.90681e-11 1.60673e-11 
107 -1.67681e-11 -1.01833e-10 -2.27392e-11 
111 -7.46983e-12 -5.13647e-11 -3.37146e-11 
115 -7.9012e-12 -1.67844e-11 1.02514e-11 
119 -1.35615e-11 -2.3796e-11 3.87651e-12 
123 -1.00933e-11 -1.70735e-11 -3.98679e-12 
127 -9.24086e-12 -1.56725e-11 -9.25539e-12 
131 6.28428e-11 6.45033e-11 -8.82435e-11 
135 1.25104e-10 4.22195e-11 -1.74595e-10 
139 1.61082e-10 -5.18038e-11 -2.00922e-10 
143 1.02184e-10 -9.37353e-11 -1.13841e-10 
147 2.44441e-11 6.6168e-11 -9.28495e-11 
151 5.12059e-11 4.65851e-11 -1.9463e-10 
155 7.70956e-11 -5.76434e-11 -2.41227e-10 
159 3.87792e-11 -8.06285e-11 -1.13769e-10 
163 -7.35352e-12 3.58036e-11 -6.04314e-11 
167 -1.23468e-11 2.26874e-11 -8.87572e-11 
171 -1.34707e-11 -1.65458e-11 -8.12955e-11 
175 -7.12651e-12 -3.61756e-11 -5.25534e-11 
179 -5.90984e-12 6.92993e-12 -1.26714e-11 
183 -9.76492e-12 4.39552e-12 -1.77522e-11 
187 -9.28429e-12 -3.30922e-12 -1.4974e-11 
191 -9.1327e-12 -1.09488e-11 -1.53929e-11 
4 -7.57572e-12 7.94616e-12 5.55883e-12 
8 -8.67997e-12 6.79881e-12 2.2872e-12 
12 -1.02265e-11 5.99009e-12 -2.77217e-12 
16 -6.66298e-12 5.42863e-12 -5.51034e-12 
20 -9.84178e-12 2.93027e-12 8.14561e-12 
24 -1.03385e-11 2.57353e-12 2.80098e-12 
28 -9.68885e-12 2.42821e-12 -1.33587e-12 
32 -9.18172e-12 2.86955e-12 -7.49492e-12 
36 -1.07428e-11 -5.14659e-12 1.01454e-11 
40 -1.49358e-11 -5.70225e-12 5.98416e-12 
44 -9.94696e-12 -2.26967e-12 -5.49032e-13 
48 -6.56154e-12 -2.56098e-12 -5.72526e-12 
52 -9.85345e-12 -1.09225e-11 1.03539e-11 
56 -9.91037e-12 -8.03599e-12 2.87042e-12 
60 -9.72763e-12 -7.14436e-12 -3.79386e-12 
64 -7.04526e-12 -6.9622e-12 -7.85468e-12 
68 7.81418e-11 -9.41372e-11 5.557e-11 
72 1.09876e-10 -1.37929e-10 3.0166e-11 
76 9.87787e-11 -1.34944e-10 -2.77225e-11 
80 5.08575e-11 -7.86294e-11 -4.77353e-11 
84 4.14119e-11 -1.13314e-10 7.45923e-11 
88 6.62728e-11 -2.07884e-10 4.61527e-11 
92 4.96347e-11 -1.75288e-10 -3.30606e-11 
96 2.39356e-11 -8.58861e-11 -5.45233e-11 
100 -5.83679e-12 -5.06114e-11 3.71249e-11 
104 -1.52946e-11 -9.88995e-11 1.75214e-11 
108 -9.6682e-12 -9.69807e-11 -2.33051e-11 
112 -5.44005e-12 -5.98286e-11 -4.15278e-11 
116 -8.15714e-12 -1.4748e-11 1.22564e-11 
120 -1.56013e-11 -2.72782e-11 7.06585e-12 
124 -1.50714e-11 -3.12348e-11 -8.18209e-12 
128 -1.01521e-11 -1.95015e-11 -1.48416e-11 
132 8.94254e-11 6.98174e-11 -1.1059e-10 
136 1.46136e-10 4.31006e-11 -1.78804e-10 
140 1.05827e-10 -2.29148e-11 -1.45688e-10 
144 6.12322e-11 -5.37315e-11 -9.18099e-11 
148 3.92459e-11 8.06691e-11 -1.1884e-10 
152 6.19971e-11 4.80191e-11 -2.00994e-10 
156 5.22933e-11 -3.98173e-11 -1.88274e-10 
160 3.208e-11 -6.14587e-11 -9.29924e-11 
164 -8.86446e-12 3.7179e-11 -4.84675e-11 
168 -1.16177e-11 2.2744e-11 -9.4649e-11 
172 -1.32909e-11 -2.50531e-11 -9.89604e-11 
176 -5.26997e-12 -4.48131e-11 -6.69928e-11 
180 -8.34137e-12 1.47885e-11 -1.69154e-11 
184 -2.02875e-11 8.19308e-12 -3.1103e-11 
188 -9.89547e-12 -5.39661e-12 -1.82749e-11 
192 -8.90671e-12 -1.13812e-11 -1.36695e-11 
