ITEM: TIMESTEP
25000
ITEM: NUMBER OF SURFS
192
ITEM: BOX BOUNDS oo rr rr
0 5e-06
0 5e-06
0 5e-06
ITEM: SURFS id f_ID_drag_fix[1] f_ID_drag_fix[2] f_ID_drag_fix[3] 
1 0 0 0 
5 0 0 0 
9 0 0 0 
13 0 0 0 
17 0 0 0 
21 0 0 0 
25 0 0 0 
29 0 0 0 
33 0 0 0 
37 0 0 0 
41 0 0 0 
45 0 0 0 
49 0 0 0 
53 0 0 0 
57 0 0 0 
61 0 0 0 
65 0 0 0 
69 0 0 0 
73 0 0 0 
77 0 0 0 
81 0 0 0 
85 0 0 0 
89 0 0 0 
93 0 0 0 
97 0 0 0 
101 0 0 0 
105 0 0 0 
109 0 0 0 
113 0 0 0 
117 0 0 0 
121 0 0 0 
125 0 0 0 
129 0 0 0 
133 0 0 0 
137 0 0 0 
141 0 0 0 
145 0 0 0 
149 0 0 0 
153 0 0 0 
157 0 0 0 
161 0 0 0 
165 0 0 0 
169 0 0 0 
173 0 0 0 
177 0 0 0 
181 0 0 0 
185 0 0 0 
189 0 0 0 
2 0 0 0 
6 0 0 0 
10 0 0 0 
14 0 0 0 
18 0 0 0 
22 0 0 0 
26 0 0 0 
30 0 0 0 
34 0 0 0 
38 0 0 0 
42 0 0 0 
46 0 0 0 
50 0 0 0 
54 0 0 0 
58 0 0 0 
62 0 0 0 
66 0 0 0 
70 0 0 0 
74 0 0 0 
78 0 0 0 
82 0 0 0 
86 0 0 0 
90 0 0 0 
94 0 0 0 
98 0 0 0 
102 0 0 0 
106 0 0 0 
110 0 0 0 
114 0 0 0 
118 0 0 0 
122 0 0 0 
126 0 0 0 
130 0 0 0 
134 0 0 0 
138 0 0 0 
142 0 0 0 
146 0 0 0 
150 0 0 0 
154 0 0 0 
158 0 0 0 
162 0 0 0 
166 0 0 0 
170 0 0 0 
174 0 0 0 
178 0 0 0 
182 0 0 0 
186 0 0 0 
190 0 0 0 
3 0 0 0 
7 0 0 0 
11 0 0 0 
15 0 0 0 
19 0 0 0 
23 0 0 0 
27 0 0 0 
31 0 0 0 
35 0 0 0 
39 0 0 0 
43 0 0 0 
47 0 0 0 
51 0 0 0 
55 0 0 0 
59 0 0 0 
63 0 0 0 
67 0 0 0 
71 0 0 0 
75 0 0 0 
79 0 0 0 
83 0 0 0 
87 0 0 0 
91 0 0 0 
95 0 0 0 
99 0 0 0 
103 0 0 0 
107 0 0 0 
111 0 0 0 
115 0 0 0 
119 0 0 0 
123 0 0 0 
127 0 0 0 
131 0 0 0 
135 0 0 0 
139 0 0 0 
143 0 0 0 
147 0 0 0 
151 0 0 0 
155 0 0 0 
159 0 0 0 
163 0 0 0 
167 0 0 0 
171 0 0 0 
175 0 0 0 
179 0 0 0 
183 0 0 0 
187 0 0 0 
191 0 0 0 
4 0 0 0 
8 0 0 0 
12 0 0 0 
16 0 0 0 
20 0 0 0 
24 0 0 0 
28 0 0 0 
32 0 0 0 
36 0 0 0 
40 0 0 0 
44 0 0 0 
48 0 0 0 
52 0 0 0 
56 0 0 0 
60 0 0 0 
64 0 0 0 
68 0 0 0 
72 0 0 0 
76 0 0 0 
80 0 0 0 
84 0 0 0 
88 0 0 0 
92 0 0 0 
96 0 0 0 
100 0 0 0 
104 0 0 0 
108 0 0 0 
112 0 0 0 
116 0 0 0 
120 0 0 0 
124 0 0 0 
128 0 0 0 
132 0 0 0 
136 0 0 0 
140 0 0 0 
144 0 0 0 
148 0 0 0 
152 0 0 0 
156 0 0 0 
160 0 0 0 
164 0 0 0 
168 0 0 0 
172 0 0 0 
176 0 0 0 
180 0 0 0 
184 0 0 0 
188 0 0 0 
192 0 0 0 
ITEM: TIMESTEP
50000
ITEM: NUMBER OF SURFS
192
ITEM: BOX BOUNDS oo rr rr
0 5e-06
0 5e-06
0 5e-06
ITEM: SURFS id f_ID_drag_fix[1] f_ID_drag_fix[2] f_ID_drag_fix[3] 
1 2.83992e-14 1.94398e-14 1.58291e-14 
5 3.72704e-14 2.26223e-14 9.05614e-15 
9 4.94153e-14 3.35585e-14 -8.39252e-15 
13 1.55813e-14 6.37246e-15 -1.27033e-14 
17 2.48649e-14 3.3463e-15 1.52791e-14 
21 4.23461e-14 1.36001e-14 7.75582e-15 
25 3.62915e-14 6.0695e-15 -9.55807e-15 
29 3.9846e-14 1.0012e-14 -3.09976e-14 
33 3.04644e-14 -8.84775e-15 1.37963e-14 
37 2.03651e-14 -3.56687e-15 3.8966e-15 
41 4.75602e-14 -1.37079e-14 -7.52842e-15 
45 7.82847e-15 -2.04233e-15 -4.2718e-15 
49 4.50829e-14 -2.35003e-14 2.28813e-14 
53 1.85539e-14 -1.30089e-14 6.73032e-15 
57 4.14342e-14 -2.41659e-14 -9.6453e-15 
61 1.78828e-14 -1.52464e-14 -1.3812e-14 
65 2.11991e-14 2.77839e-14 1.77389e-14 
69 9.43834e-15 1.47765e-14 5.19956e-15 
73 4.97423e-15 6.16169e-15 -1.01083e-15 
77 1.09796e-14 1.41811e-14 -1.03335e-14 
81 2.71168e-15 5.2441e-15 3.68307e-15 
85 4.55511e-15 1.46468e-14 3.60395e-15 
89 3.08375e-15 2.13772e-14 -1.29583e-15 
93 6.02247e-15 1.27934e-14 -8.43054e-15 
97 -2.39695e-15 1.12507e-14 9.77209e-15 
101 -5.61678e-16 6.28934e-15 4.67655e-16 
105 0 0 0 
109 -1.74775e-15 1.60259e-15 -2.17061e-15 
113 -6.26909e-16 4.22678e-15 3.25209e-15 
117 0 0 0 
121 0 0 0 
125 -4.51297e-15 6.8753e-15 -4.89938e-15 
129 1.73663e-14 1.39285e-14 1.34619e-14 
133 8.74477e-15 4.98778e-15 1.33423e-14 
137 1.99479e-14 -3.76512e-15 2.46346e-14 
141 2.38879e-14 -2.28853e-14 2.92052e-14 
145 3.60352e-15 9.92766e-15 1.14348e-14 
149 4.89769e-15 7.49033e-15 2.42716e-14 
153 7.27579e-15 -3.3212e-15 2.2763e-14 
157 2.96452e-15 -4.2984e-15 1.15825e-14 
161 -4.05893e-15 7.2429e-15 1.27833e-14 
165 -2.32499e-15 1.09709e-15 8.24383e-15 
169 -1.36718e-15 -2.27993e-15 1.14994e-14 
173 -1.62323e-15 -3.50545e-15 5.24891e-15 
177 -1.66098e-15 4.57374e-15 6.23618e-15 
181 -3.97064e-15 6.43666e-16 5.18796e-15 
185 -2.21044e-15 5.81124e-16 2.14554e-15 
189 -2.42492e-15 -3.76038e-15 4.23556e-15 
2 1.42317e-14 1.21759e-14 1.07235e-14 
6 3.05982e-14 2.58293e-14 1.01157e-14 
10 2.47604e-14 8.51011e-15 -7.74565e-15 
14 2.94495e-14 1.9361e-14 -1.98282e-14 
18 1.62973e-14 3.50247e-15 9.59196e-15 
22 9.70976e-14 2.17322e-14 2.21185e-14 
26 1.03197e-13 2.34315e-14 -2.66003e-14 
30 2.73337e-14 3.77833e-15 -1.54293e-14 
34 3.57598e-14 -1.05361e-14 1.98745e-14 
38 5.43451e-14 -1.16048e-14 1.33502e-14 
42 2.18681e-14 -4.56052e-15 -3.11322e-15 
46 2.23052e-14 -4.38563e-15 -1.44012e-14 
50 1.30691e-14 -1.30517e-14 1.7227e-14 
54 1.90691e-14 -1.48913e-14 6.90581e-15 
58 2.28133e-14 -1.45795e-14 -7.75543e-15 
62 6.51832e-15 -3.86382e-15 -2.63568e-15 
66 8.40196e-15 1.26672e-14 6.93324e-15 
70 2.50511e-14 3.06321e-14 9.19388e-15 
74 1.15337e-14 1.93935e-14 -3.53434e-15 
78 4.62735e-15 9.43324e-15 -9.04208e-15 
82 4.32734e-15 1.027e-14 7.85324e-15 
86 8.94031e-15 4.04393e-14 6.14334e-15 
90 1.56691e-15 1.49282e-14 -2.69407e-15 
94 1.26505e-15 8.75975e-15 -7.27317e-15 
98 0 0 0 
102 -2.22164e-16 8.83759e-15 -1.1995e-16 
106 -2.07862e-15 1.04714e-14 -8.7193e-16 
110 1.92657e-15 9.30829e-15 -6.95743e-15 
114 -2.05582e-15 7.60665e-15 5.50319e-15 
118 -5.03393e-16 6.39531e-16 4.26489e-16 
122 -2.79899e-16 1.95004e-15 -1.58479e-15 
126 -7.40063e-16 2.85842e-16 -1.09471e-15 
130 2.02225e-14 1.4284e-14 2.32301e-14 
134 2.9551e-15 1.37459e-15 4.7236e-15 
138 3.53206e-15 -2.50613e-15 3.0118e-15 
142 1.44455e-14 -1.5048e-14 2.41337e-14 
146 7.07329e-15 1.29717e-14 2.23734e-14 
150 2.8679e-15 2.04381e-16 8.1823e-15 
154 7.36145e-15 -3.93333e-15 1.79659e-14 
158 1.44338e-15 -2.52411e-15 8.31977e-15 
162 -3.78277e-16 1.29479e-15 1.34604e-15 
166 -2.78582e-15 2.78538e-15 1.23643e-14 
170 1.15484e-15 -4.92907e-15 1.96556e-14 
174 -1.48528e-15 -1.26327e-14 1.92112e-14 
178 -1.07515e-15 1.96115e-15 1.38789e-15 
182 -3.57334e-15 -6.81109e-16 4.51283e-15 
186 3.51101e-17 -2.92834e-15 2.53559e-15 
190 -2.05237e-15 -2.9204e-15 4.88468e-15 
3 0 0 0 
7 0 0 0 
11 0 0 0 
15 -8.17592e-16 2.06662e-15 -1.17753e-15 
19 -1.31475e-15 1.01258e-15 2.94412e-15 
23 0 0 0 
27 0 0 0 
31 -5.768e-16 8.92026e-16 -1.46004e-15 
35 0 0 0 
39 0 0 0 
43 0 0 0 
47 0 0 0 
51 -1.50886e-15 -2.42824e-15 1.47016e-15 
55 0 0 0 
59 -1.62109e-15 -7.73857e-16 5.82526e-16 
63 -2.8002e-15 -2.71307e-15 -2.38694e-15 
67 9.56132e-15 -1.24204e-14 9.4977e-15 
71 1.48707e-14 -2.31157e-14 5.67488e-15 
75 8.17659e-15 -8.61853e-15 -2.55655e-15 
79 8.04295e-15 -7.47419e-15 -5.71348e-15 
83 4.78968e-15 -2.66815e-14 2.04999e-14 
87 3.77538e-15 -1.65679e-14 3.21791e-15 
91 2.44614e-15 -1.45766e-14 -4.74294e-15 
95 2.39576e-15 -1.15092e-14 -6.35387e-15 
99 -3.8178e-15 -2.04247e-14 1.33964e-14 
103 -7.30104e-17 -7.72874e-15 3.40749e-15 
107 -2.07478e-15 -1.00238e-14 -1.19751e-15 
111 -3.22464e-15 -4.88305e-15 -5.18648e-15 
115 0 0 0 
119 1.24072e-16 -3.01065e-15 -1.33242e-16 
123 0 0 0 
127 0 0 0 
131 1.06695e-14 1.16645e-14 -1.79778e-14 
135 2.35322e-15 2.84397e-15 -6.74356e-15 
139 9.03956e-15 -8.21661e-16 -1.27629e-14 
143 1.93452e-14 -1.7054e-14 -2.32112e-14 
147 2.4691e-15 1.03554e-14 -1.48114e-14 
151 5.87878e-15 -1.57453e-15 -1.29785e-14 
155 5.56391e-15 -2.82388e-15 -2.15456e-14 
159 5.55976e-15 -9.71744e-15 -1.54475e-14 
163 -9.27081e-16 7.12836e-15 -7.90323e-15 
167 -3.5761e-16 3.30619e-16 -2.88855e-15 
171 -2.9488e-16 -1.60576e-15 -1.88265e-14 
175 -1.21463e-15 -7.89446e-15 -1.07913e-14 
179 -1.64715e-15 1.63996e-15 -4.05369e-15 
183 -1.41174e-15 1.2994e-15 -3.93333e-15 
187 0 0 0 
191 0 0 0 
4 -5.13727e-15 3.34913e-15 3.50198e-15 
8 -2.14058e-15 -1.16353e-17 1.56599e-15 
12 0 0 0 
16 0 0 0 
20 0 0 0 
24 0 0 0 
28 0 0 0 
32 0 0 0 
36 -2.66874e-15 -8.28859e-16 1.14916e-15 
40 0 0 0 
44 0 0 0 
48 0 0 0 
52 0 0 0 
56 0 0 0 
60 -1.53315e-15 -1.45294e-15 4.8522e-16 
64 -1.10693e-15 -1.9514e-16 -5.06974e-16 
68 6.58671e-15 -8.59896e-15 5.5471e-15 
72 1.36092e-14 -1.65156e-14 1.07042e-15 
76 2.17785e-14 -2.57946e-14 -3.56757e-15 
80 9.68392e-15 -1.97833e-14 -8.30163e-15 
84 3.40684e-15 -1.03863e-14 5.61124e-15 
88 8.35219e-15 -2.76385e-14 7.77229e-15 
92 1.06815e-14 -2.30415e-14 -5.56811e-15 
96 1.99719e-16 -8.68712e-15 -5.99459e-15 
100 -2.91921e-16 -6.25912e-15 7.2849e-15 
104 -2.34068e-15 -8.58757e-15 -4.54145e-17 
108 -1.06873e-17 -1.79652e-14 -3.8591e-15 
112 1.19947e-15 -1.19709e-14 -4.44226e-15 
116 -2.567e-16 -4.16406e-15 2.13131e-15 
120 3.95409e-16 -2.89155e-15 -2.60865e-16 
124 -1.8266e-15 -1.47262e-15 -9.11965e-16 
128 0 0 0 
132 2.71074e-14 2.13474e-14 -3.01045e-14 
136 2.13661e-14 8.35717e-15 -2.91152e-14 
140 1.89082e-14 -4.45216e-15 -2.73804e-14 
144 1.61422e-14 -1.00314e-14 -2.22546e-14 
148 2.31756e-15 2.23016e-15 -2.95315e-15 
152 7.40397e-15 4.59579e-15 -1.61411e-14 
156 8.91378e-15 -5.9349e-15 -3.20139e-14 
160 4.63026e-15 -1.10362e-14 -1.70762e-14 
164 8.6975e-16 4.01377e-15 -9.91176e-15 
168 -2.32413e-15 1.5587e-15 -6.05668e-15 
172 -9.11915e-16 -1.27696e-15 -1.21216e-14 
176 -1.79697e-15 -8.02921e-15 -6.04761e-15 
180 -2.96128e-15 2.10297e-15 -3.17258e-15 
184 0 0 0 
188 -4.51773e-15 -4.65151e-15 -1.08324e-14 
192 -2.89853e-15 -4.88546e-15 -6.15373e-15 
