ITEM: TIMESTEP
25000
ITEM: NUMBER OF SURFS
192
ITEM: BOX BOUNDS oo rr rr
0 5e-06
0 5e-06
0 5e-06
ITEM: SURFS id f_ID_drag_fix[1] f_ID_drag_fix[2] f_ID_drag_fix[3] 
1 0 0 0 
5 0 0 0 
9 0 0 0 
13 0 0 0 
17 0 0 0 
21 0 0 0 
25 0 0 0 
29 0 0 0 
33 0 0 0 
37 0 0 0 
41 0 0 0 
45 0 0 0 
49 0 0 0 
53 0 0 0 
57 0 0 0 
61 0 0 0 
65 0 0 0 
69 0 0 0 
73 0 0 0 
77 0 0 0 
81 0 0 0 
85 0 0 0 
89 0 0 0 
93 0 0 0 
97 0 0 0 
101 0 0 0 
105 0 0 0 
109 0 0 0 
113 0 0 0 
117 0 0 0 
121 0 0 0 
125 0 0 0 
129 0 0 0 
133 0 0 0 
137 0 0 0 
141 0 0 0 
145 0 0 0 
149 0 0 0 
153 0 0 0 
157 0 0 0 
161 0 0 0 
165 0 0 0 
169 0 0 0 
173 0 0 0 
177 0 0 0 
181 0 0 0 
185 0 0 0 
189 0 0 0 
2 0 0 0 
6 0 0 0 
10 0 0 0 
14 0 0 0 
18 0 0 0 
22 0 0 0 
26 0 0 0 
30 0 0 0 
34 0 0 0 
38 0 0 0 
42 0 0 0 
46 0 0 0 
50 0 0 0 
54 0 0 0 
58 0 0 0 
62 0 0 0 
66 0 0 0 
70 0 0 0 
74 0 0 0 
78 0 0 0 
82 0 0 0 
86 0 0 0 
90 0 0 0 
94 0 0 0 
98 0 0 0 
102 0 0 0 
106 0 0 0 
110 0 0 0 
114 0 0 0 
118 0 0 0 
122 0 0 0 
126 0 0 0 
130 0 0 0 
134 0 0 0 
138 0 0 0 
142 0 0 0 
146 0 0 0 
150 0 0 0 
154 0 0 0 
158 0 0 0 
162 0 0 0 
166 0 0 0 
170 0 0 0 
174 0 0 0 
178 0 0 0 
182 0 0 0 
186 0 0 0 
190 0 0 0 
3 0 0 0 
7 0 0 0 
11 0 0 0 
15 0 0 0 
19 0 0 0 
23 0 0 0 
27 0 0 0 
31 0 0 0 
35 0 0 0 
39 0 0 0 
43 0 0 0 
47 0 0 0 
51 0 0 0 
55 0 0 0 
59 0 0 0 
63 0 0 0 
67 0 0 0 
71 0 0 0 
75 0 0 0 
79 0 0 0 
83 0 0 0 
87 0 0 0 
91 0 0 0 
95 0 0 0 
99 0 0 0 
103 0 0 0 
107 0 0 0 
111 0 0 0 
115 0 0 0 
119 0 0 0 
123 0 0 0 
127 0 0 0 
131 0 0 0 
135 0 0 0 
139 0 0 0 
143 0 0 0 
147 0 0 0 
151 0 0 0 
155 0 0 0 
159 0 0 0 
163 0 0 0 
167 0 0 0 
171 0 0 0 
175 0 0 0 
179 0 0 0 
183 0 0 0 
187 0 0 0 
191 0 0 0 
4 0 0 0 
8 0 0 0 
12 0 0 0 
16 0 0 0 
20 0 0 0 
24 0 0 0 
28 0 0 0 
32 0 0 0 
36 0 0 0 
40 0 0 0 
44 0 0 0 
48 0 0 0 
52 0 0 0 
56 0 0 0 
60 0 0 0 
64 0 0 0 
68 0 0 0 
72 0 0 0 
76 0 0 0 
80 0 0 0 
84 0 0 0 
88 0 0 0 
92 0 0 0 
96 0 0 0 
100 0 0 0 
104 0 0 0 
108 0 0 0 
112 0 0 0 
116 0 0 0 
120 0 0 0 
124 0 0 0 
128 0 0 0 
132 0 0 0 
136 0 0 0 
140 0 0 0 
144 0 0 0 
148 0 0 0 
152 0 0 0 
156 0 0 0 
160 0 0 0 
164 0 0 0 
168 0 0 0 
172 0 0 0 
176 0 0 0 
180 0 0 0 
184 0 0 0 
188 0 0 0 
192 0 0 0 
ITEM: TIMESTEP
50000
ITEM: NUMBER OF SURFS
192
ITEM: BOX BOUNDS oo rr rr
0 5e-06
0 5e-06
0 5e-06
ITEM: SURFS id f_ID_drag_fix[1] f_ID_drag_fix[2] f_ID_drag_fix[3] 
1 2.21061e-14 1.33943e-14 1.57057e-14 
5 2.65859e-14 1.67559e-14 6.62345e-15 
9 2.40853e-14 1.62371e-14 -6.16072e-15 
13 1.3868e-14 1.03795e-14 -1.04799e-14 
17 2.7591e-14 5.60891e-15 1.83604e-14 
21 5.10509e-14 1.07339e-14 1.13975e-14 
25 5.17723e-14 1.20426e-14 -1.21199e-14 
29 2.31806e-14 5.75042e-15 -1.57822e-14 
33 2.80896e-14 -5.19676e-15 1.71674e-14 
37 4.91392e-14 -9.06325e-15 1.01929e-14 
41 5.46927e-14 -1.18969e-14 -1.11163e-14 
45 2.68382e-14 -6.08871e-15 -1.62103e-14 
49 4.09278e-14 -2.29171e-14 2.24991e-14 
53 3.06578e-14 -1.88213e-14 5.75174e-15 
57 2.48821e-14 -1.71481e-14 -4.54627e-15 
61 2.18854e-14 -1.58037e-14 -1.34189e-14 
65 1.0996e-14 1.55736e-14 1.16561e-14 
69 1.23089e-14 1.76897e-14 3.92126e-15 
73 1.31984e-14 1.75048e-14 -4.60696e-15 
77 1.07206e-14 1.2087e-14 -1.02891e-14 
81 3.60251e-15 1.16478e-14 8.0026e-15 
85 6.79699e-15 2.24576e-14 5.05195e-15 
89 6.98821e-15 2.41906e-14 -6.15722e-15 
93 4.06567e-15 1.19403e-14 -8.84152e-15 
97 -9.35665e-16 8.8325e-15 5.92458e-15 
101 -1.1849e-15 1.11465e-14 2.21718e-15 
105 -1.60822e-15 1.19465e-14 -2.42284e-15 
109 -5.29368e-16 6.08129e-15 -3.83034e-15 
113 -2.69294e-15 6.32976e-15 3.86306e-15 
117 -2.01228e-15 4.14255e-15 7.92397e-16 
121 -1.44269e-15 2.54439e-15 -5.19384e-16 
125 -1.73634e-15 2.88678e-15 -1.71379e-15 
129 9.95694e-15 1.03951e-14 1.43508e-14 
133 1.15282e-14 4.47727e-15 1.63792e-14 
137 1.40687e-14 -4.61867e-15 1.83629e-14 
141 1.19361e-14 -1.12263e-14 1.29136e-14 
145 3.08137e-15 7.13859e-15 1.01924e-14 
149 5.91974e-15 5.26484e-15 2.16054e-14 
153 8.12389e-15 -5.95638e-15 2.60326e-14 
157 3.99315e-15 -8.75041e-15 1.23879e-14 
161 -7.89872e-16 5.07225e-15 8.1735e-15 
165 -1.14743e-15 2.19002e-15 1.00548e-14 
169 -1.80999e-15 -2.59522e-15 1.17176e-14 
173 -9.37097e-16 -5.02026e-15 7.79693e-15 
177 -2.80829e-15 3.33899e-15 6.36612e-15 
181 -1.73581e-15 6.50061e-16 3.79548e-15 
185 -1.9416e-15 -6.76747e-16 3.38651e-15 
189 -1.76993e-15 -1.92172e-15 3.24554e-15 
2 2.11247e-14 1.55044e-14 1.30129e-14 
6 2.75626e-14 1.79653e-14 5.09727e-15 
10 2.93185e-14 1.74704e-14 -5.30159e-15 
14 3.82511e-14 2.13575e-14 -2.1292e-14 
18 2.35163e-14 5.31975e-15 1.4259e-14 
22 5.14981e-14 1.1938e-14 1.05251e-14 
26 4.9031e-14 9.62585e-15 -9.86182e-15 
30 3.01402e-14 6.29531e-15 -1.82583e-14 
34 2.39361e-14 -5.67584e-15 1.66655e-14 
38 5.7119e-14 -1.29229e-14 1.33343e-14 
42 5.24381e-14 -1.06603e-14 -1.11436e-14 
46 2.7216e-14 -5.45879e-15 -1.76502e-14 
50 1.3362e-14 -9.75521e-15 9.92711e-15 
54 2.61619e-14 -1.78923e-14 6.18601e-15 
58 2.86451e-14 -1.77296e-14 -7.02058e-15 
62 2.17464e-14 -1.30386e-14 -1.56685e-14 
66 1.52528e-14 1.74598e-14 1.14351e-14 
70 1.47343e-14 1.91993e-14 4.2477e-15 
74 1.4217e-14 1.9353e-14 -3.84394e-15 
78 1.73984e-14 2.60243e-14 -1.59337e-14 
82 3.77e-15 1.13062e-14 7.02629e-15 
86 6.3847e-15 2.02248e-14 4.51871e-15 
90 4.72144e-15 1.91913e-14 -3.88003e-15 
94 2.79171e-15 1.07767e-14 -6.79683e-15 
98 -1.05227e-15 6.67577e-15 4.63644e-15 
102 -1.68256e-15 1.0921e-14 2.5287e-15 
106 -1.56012e-15 1.08326e-14 -2.69875e-15 
110 -9.38077e-16 7.34138e-15 -4.86036e-15 
114 -1.10356e-15 1.51499e-15 1.30011e-15 
118 -1.42234e-15 2.56545e-15 8.47504e-16 
122 -1.8038e-15 3.84458e-15 -7.99451e-16 
126 -1.38851e-15 2.74443e-15 -2.04602e-15 
130 1.44851e-14 1.13716e-14 1.72625e-14 
134 1.45069e-14 3.87191e-15 1.86202e-14 
138 1.40749e-14 -3.59812e-15 2.05633e-14 
142 1.66337e-14 -1.45799e-14 2.60512e-14 
146 3.53815e-15 7.69413e-15 1.12784e-14 
150 6.63693e-15 4.92763e-15 2.13893e-14 
154 3.9817e-15 -3.11828e-15 1.53772e-14 
158 3.1834e-15 -7.10833e-15 1.09229e-14 
162 -1.00992e-15 3.5928e-15 5.19254e-15 
166 -1.35314e-15 2.93312e-15 1.04197e-14 
170 -1.57604e-15 -1.91957e-15 1.06041e-14 
174 -7.50837e-16 -4.72445e-15 6.55973e-15 
178 -1.24015e-15 1.51068e-15 1.99439e-15 
182 -1.47442e-15 6.8597e-16 2.76332e-15 
186 -1.58511e-15 -8.3078e-16 3.08688e-15 
190 -1.30626e-15 -2.51625e-15 3.18817e-15 
3 -9.92502e-16 9.96193e-16 1.10004e-15 
7 -4.95667e-16 4.5086e-16 1.7014e-16 
11 -6.65022e-16 7.22524e-16 -1.84689e-16 
15 -8.97618e-16 8.73876e-16 -9.57294e-16 
19 -6.75081e-16 2.01254e-16 6.54324e-16 
23 -1.11635e-16 6.12249e-17 5.68507e-17 
27 -8.89694e-17 2.84456e-17 -2.06742e-17 
31 -5.13198e-16 2.03719e-16 -4.71763e-16 
35 -8.23445e-16 -1.93615e-16 5.76032e-16 
39 -7.99011e-17 6.82363e-18 -8.81622e-18 
43 -3.03932e-16 -1.86454e-16 -1.47216e-16 
47 -6.07628e-16 -1.50247e-16 -5.96556e-16 
51 -1.21301e-15 -8.6088e-16 7.35251e-16 
55 -7.88545e-16 -5.91094e-16 2.14135e-16 
59 -6.87857e-16 -7.19591e-16 -1.75815e-16 
63 -8.32147e-16 -9.92615e-16 -9.58182e-16 
67 1.19525e-14 -1.66712e-14 1.25533e-14 
71 1.3967e-14 -1.95476e-14 4.66809e-15 
75 1.5687e-14 -2.04357e-14 -5.49492e-15 
79 1.04693e-14 -1.16449e-14 -9.58984e-15 
83 3.01068e-15 -1.04136e-14 7.5459e-15 
87 5.97129e-15 -2.23335e-14 5.29477e-15 
91 7.75325e-15 -2.57071e-14 -6.08393e-15 
95 3.8964e-15 -1.12887e-14 -8.02601e-15 
99 -4.33371e-16 -7.91122e-15 5.08184e-15 
103 -1.60093e-15 -1.24164e-14 2.51095e-15 
107 -1.59391e-15 -1.35799e-14 -2.70137e-15 
111 -1.26775e-15 -5.97922e-15 -3.45783e-15 
115 -2.74127e-15 -6.03621e-15 3.49606e-15 
119 -1.88465e-15 -3.79945e-15 7.56809e-16 
123 -1.90068e-15 -3.26334e-15 -9.24275e-16 
127 -1.571e-15 -2.95695e-15 -1.70303e-15 
131 1.21868e-14 1.28903e-14 -1.63618e-14 
135 1.20652e-14 4.07488e-15 -1.70056e-14 
139 1.47032e-14 -4.5656e-15 -1.91428e-14 
143 9.28564e-15 -8.14026e-15 -1.07556e-14 
147 3.18019e-15 7.85357e-15 -1.07188e-14 
151 5.78042e-15 4.64905e-15 -2.18929e-14 
155 8.04684e-15 -6.60575e-15 -2.81161e-14 
159 3.14958e-15 -7.2227e-15 -1.04727e-14 
163 -7.65854e-16 4.49755e-15 -7.24236e-15 
167 -1.2799e-15 2.09559e-15 -1.08321e-14 
171 -1.66946e-15 -2.36818e-15 -1.13291e-14 
175 -1.0233e-15 -4.30624e-15 -6.39502e-15 
179 -2.68382e-15 2.89409e-15 -5.45932e-15 
183 -1.66374e-15 8.45531e-16 -3.5284e-15 
187 -1.37698e-15 -4.40839e-16 -2.19133e-15 
191 -1.87845e-15 -2.08605e-15 -3.07278e-15 
4 -9.19106e-16 9.51746e-16 8.00601e-16 
8 -7.56909e-16 7.71261e-16 1.08813e-16 
12 -5.84519e-16 4.97805e-16 -2.1094e-16 
16 -1.33798e-15 1.20584e-15 -1.20781e-15 
20 -5.64173e-16 1.74065e-16 6.0244e-16 
24 -8.72063e-17 3.32233e-17 7.68038e-18 
28 -1.05478e-16 3.61219e-17 -1.24693e-17 
32 -4.64873e-16 2.18119e-16 -4.9966e-16 
36 -5.92547e-16 -2.65055e-16 6.754e-16 
40 -1.92347e-16 -1.43873e-16 -7.9194e-18 
44 -2.41824e-17 -2.17851e-17 -1.86213e-17 
48 -6.85786e-16 -2.11233e-16 -6.71082e-16 
52 -8.86596e-16 -9.59987e-16 9.49959e-16 
56 -3.91861e-16 -5.507e-16 2.18347e-16 
60 -4.28023e-16 -4.5746e-16 -1.6938e-16 
64 -8.31904e-16 -7.41209e-16 -9.07556e-16 
68 1.49615e-14 -1.77373e-14 1.20961e-14 
72 1.46914e-14 -1.88004e-14 4.14487e-15 
76 1.37748e-14 -1.96999e-14 -3.6712e-15 
80 1.73508e-14 -2.72369e-14 -1.58072e-14 
84 3.96112e-15 -1.18388e-14 7.45905e-15 
88 5.50533e-15 -2.00761e-14 4.39085e-15 
92 5.34289e-15 -1.94028e-14 -4.10185e-15 
96 2.84495e-15 -1.08441e-14 -6.88577e-15 
100 -1.11759e-15 -5.59572e-15 4.04814e-15 
104 -1.50233e-15 -9.66836e-15 2.13235e-15 
108 -1.48908e-15 -1.24711e-14 -2.92539e-15 
112 -7.53744e-16 -5.20823e-15 -3.6303e-15 
116 -1.48506e-15 -2.02987e-15 1.58084e-15 
120 -1.47085e-15 -2.80135e-15 5.11833e-16 
124 -1.49106e-15 -3.16663e-15 -8.52595e-16 
128 -1.83046e-15 -3.64832e-15 -2.91541e-15 
132 1.52343e-14 1.15164e-14 -1.72958e-14 
136 1.44017e-14 4.02845e-15 -1.94378e-14 
140 1.36099e-14 -3.91607e-15 -1.88942e-14 
144 1.64463e-14 -1.52203e-14 -2.51074e-14 
148 3.79276e-15 7.84992e-15 -1.15647e-14 
152 6.21419e-15 4.74953e-15 -2.08691e-14 
156 4.37473e-15 -3.22049e-15 -1.72082e-14 
160 2.82353e-15 -7.85383e-15 -1.16697e-14 
164 -1.03175e-15 4.42852e-15 -5.94898e-15 
168 -1.91346e-15 2.73901e-15 -1.17613e-14 
172 -1.35564e-15 -2.02934e-15 -9.76513e-15 
176 -7.61977e-16 -4.19332e-15 -5.9235e-15 
180 -9.67573e-16 1.2379e-15 -1.73646e-15 
184 -1.44259e-15 7.87859e-16 -2.73871e-15 
188 -1.66611e-15 -6.91162e-16 -3.35043e-15 
192 -1.50476e-15 -2.42113e-15 -3.42632e-15 
