ITEM: TIMESTEP
25000
ITEM: NUMBER OF SURFS
192
ITEM: BOX BOUNDS oo rr rr
0 5e-06
0 5e-06
0 5e-06
ITEM: SURFS id f_ID_drag_fix[1] f_ID_drag_fix[2] f_ID_drag_fix[3] 
1 0 0 0 
5 0 0 0 
9 0 0 0 
13 0 0 0 
17 0 0 0 
21 0 0 0 
25 0 0 0 
29 0 0 0 
33 0 0 0 
37 0 0 0 
41 0 0 0 
45 0 0 0 
49 0 0 0 
53 0 0 0 
57 0 0 0 
61 0 0 0 
65 0 0 0 
69 0 0 0 
73 0 0 0 
77 0 0 0 
81 0 0 0 
85 0 0 0 
89 0 0 0 
93 0 0 0 
97 0 0 0 
101 0 0 0 
105 0 0 0 
109 0 0 0 
113 0 0 0 
117 0 0 0 
121 0 0 0 
125 0 0 0 
129 0 0 0 
133 0 0 0 
137 0 0 0 
141 0 0 0 
145 0 0 0 
149 0 0 0 
153 0 0 0 
157 0 0 0 
161 0 0 0 
165 0 0 0 
169 0 0 0 
173 0 0 0 
177 0 0 0 
181 0 0 0 
185 0 0 0 
189 0 0 0 
2 0 0 0 
6 0 0 0 
10 0 0 0 
14 0 0 0 
18 0 0 0 
22 0 0 0 
26 0 0 0 
30 0 0 0 
34 0 0 0 
38 0 0 0 
42 0 0 0 
46 0 0 0 
50 0 0 0 
54 0 0 0 
58 0 0 0 
62 0 0 0 
66 0 0 0 
70 0 0 0 
74 0 0 0 
78 0 0 0 
82 0 0 0 
86 0 0 0 
90 0 0 0 
94 0 0 0 
98 0 0 0 
102 0 0 0 
106 0 0 0 
110 0 0 0 
114 0 0 0 
118 0 0 0 
122 0 0 0 
126 0 0 0 
130 0 0 0 
134 0 0 0 
138 0 0 0 
142 0 0 0 
146 0 0 0 
150 0 0 0 
154 0 0 0 
158 0 0 0 
162 0 0 0 
166 0 0 0 
170 0 0 0 
174 0 0 0 
178 0 0 0 
182 0 0 0 
186 0 0 0 
190 0 0 0 
3 0 0 0 
7 0 0 0 
11 0 0 0 
15 0 0 0 
19 0 0 0 
23 0 0 0 
27 0 0 0 
31 0 0 0 
35 0 0 0 
39 0 0 0 
43 0 0 0 
47 0 0 0 
51 0 0 0 
55 0 0 0 
59 0 0 0 
63 0 0 0 
67 0 0 0 
71 0 0 0 
75 0 0 0 
79 0 0 0 
83 0 0 0 
87 0 0 0 
91 0 0 0 
95 0 0 0 
99 0 0 0 
103 0 0 0 
107 0 0 0 
111 0 0 0 
115 0 0 0 
119 0 0 0 
123 0 0 0 
127 0 0 0 
131 0 0 0 
135 0 0 0 
139 0 0 0 
143 0 0 0 
147 0 0 0 
151 0 0 0 
155 0 0 0 
159 0 0 0 
163 0 0 0 
167 0 0 0 
171 0 0 0 
175 0 0 0 
179 0 0 0 
183 0 0 0 
187 0 0 0 
191 0 0 0 
4 0 0 0 
8 0 0 0 
12 0 0 0 
16 0 0 0 
20 0 0 0 
24 0 0 0 
28 0 0 0 
32 0 0 0 
36 0 0 0 
40 0 0 0 
44 0 0 0 
48 0 0 0 
52 0 0 0 
56 0 0 0 
60 0 0 0 
64 0 0 0 
68 0 0 0 
72 0 0 0 
76 0 0 0 
80 0 0 0 
84 0 0 0 
88 0 0 0 
92 0 0 0 
96 0 0 0 
100 0 0 0 
104 0 0 0 
108 0 0 0 
112 0 0 0 
116 0 0 0 
120 0 0 0 
124 0 0 0 
128 0 0 0 
132 0 0 0 
136 0 0 0 
140 0 0 0 
144 0 0 0 
148 0 0 0 
152 0 0 0 
156 0 0 0 
160 0 0 0 
164 0 0 0 
168 0 0 0 
172 0 0 0 
176 0 0 0 
180 0 0 0 
184 0 0 0 
188 0 0 0 
192 0 0 0 
ITEM: TIMESTEP
50000
ITEM: NUMBER OF SURFS
192
ITEM: BOX BOUNDS oo rr rr
0 5e-06
0 5e-06
0 5e-06
ITEM: SURFS id f_ID_drag_fix[1] f_ID_drag_fix[2] f_ID_drag_fix[3] 
1 1.94591e-14 1.1164e-14 1.11554e-14 
5 3.47361e-14 2.27285e-14 8.77601e-15 
9 1.78625e-14 1.06821e-14 -1.09516e-15 
13 2.99633e-14 2.15894e-14 -2.14354e-14 
17 2.07082e-14 4.50709e-15 9.63814e-15 
21 4.45702e-14 1.80618e-14 3.44225e-15 
25 2.5365e-14 6.63166e-15 -7.41261e-15 
29 1.36676e-14 4.82234e-16 -4.5368e-15 
33 2.0751e-14 -2.50832e-15 1.52161e-14 
37 9.06845e-15 -4.41846e-15 -2.95454e-15 
41 8.88377e-14 -2.41e-14 -1.61891e-14 
45 3.59583e-14 -7.30112e-15 -2.00748e-14 
49 1.21362e-14 -4.4275e-15 3.00583e-15 
53 6.3973e-15 -8.99086e-16 9.21799e-16 
57 3.51982e-14 -2.17446e-14 -5.73848e-15 
61 2.01045e-14 -1.56206e-14 -9.24577e-15 
65 1.2491e-14 2.79654e-14 1.80257e-14 
69 9.56943e-15 1.66008e-14 4.27894e-15 
73 1.34798e-14 1.66405e-14 -4.2935e-15 
77 6.59525e-15 5.72754e-15 -1.38572e-14 
81 1.02885e-14 2.60151e-14 1.59886e-14 
85 5.77877e-15 2.7361e-14 8.612e-15 
89 1.26195e-16 4.28065e-15 -3.06341e-15 
93 0 0 0 
97 -8.38534e-16 6.68982e-15 5.28467e-15 
101 -2.48347e-16 2.37831e-14 8.24241e-15 
105 0 0 0 
109 -2.72436e-15 4.90181e-15 -3.55691e-15 
113 -6.48567e-15 3.70532e-15 5.81057e-15 
117 0 0 0 
121 -4.67015e-16 5.01622e-15 -1.28995e-15 
125 -9.4302e-15 9.18106e-15 -1.21167e-14 
129 7.60287e-15 1.09171e-14 1.5097e-14 
133 7.16129e-15 5.85095e-16 1.27021e-14 
137 1.80983e-14 -5.0811e-15 2.70878e-14 
141 7.52727e-15 -8.44374e-15 1.23641e-14 
145 2.42573e-15 3.64034e-15 6.187e-15 
149 3.05073e-15 5.27701e-15 1.86513e-14 
153 6.95195e-15 -4.05925e-15 2.31785e-14 
157 0 0 0 
161 -1.88269e-15 -1.70034e-17 1.11119e-14 
165 2.96506e-15 3.52282e-16 3.69788e-15 
169 2.05863e-15 -1.54544e-15 8.5506e-15 
173 5.8277e-16 -2.65248e-15 4.80339e-16 
177 -1.33371e-17 4.83762e-15 3.82998e-15 
181 -1.51899e-15 8.05813e-16 4.33454e-15 
185 0 0 0 
189 0 0 0 
2 2.77123e-14 2.27273e-14 1.8614e-14 
6 0 0 0 
10 1.66965e-14 8.65128e-15 -4.47686e-15 
14 4.02226e-14 3.22742e-14 -1.47475e-14 
18 3.27249e-14 8.2004e-15 2.53948e-14 
22 7.07994e-15 2.10835e-15 -1.01137e-15 
26 5.45488e-14 8.18518e-15 -1.17056e-14 
30 3.01931e-14 4.59556e-15 -1.3017e-14 
34 1.64466e-14 -3.71201e-15 7.24324e-15 
38 1.6474e-14 2.23572e-15 4.39639e-15 
42 7.80202e-14 -1.60711e-14 -2.1622e-14 
46 4.12108e-15 -4.17373e-16 -5.84754e-15 
50 6.30067e-15 -5.72847e-15 6.4551e-15 
54 2.22289e-14 -1.48167e-14 9.71729e-15 
58 4.36047e-14 -2.37488e-14 -1.67349e-14 
62 3.22735e-14 -1.6297e-14 -1.68325e-14 
66 2.15088e-14 2.78748e-14 1.67087e-14 
70 1.57915e-14 2.06725e-14 1.25075e-15 
74 2.01047e-15 5.56654e-15 6.91763e-16 
78 1.34009e-14 1.77576e-14 -8.08845e-15 
82 3.4931e-15 1.78604e-14 1.16461e-14 
86 7.14748e-15 1.78899e-14 8.487e-15 
90 0 0 0 
94 -1.01443e-16 2.02571e-14 -1.59073e-14 
98 0 0 0 
102 -3.40721e-15 6.34512e-15 3.81742e-15 
106 -1.49771e-14 3.71531e-14 -3.42758e-15 
110 -1.43356e-15 1.65969e-14 -1.20156e-14 
114 -1.59657e-15 -3.38508e-16 3.04809e-15 
118 0 0 0 
122 -3.06864e-15 4.96013e-15 -2.16208e-15 
126 0 0 0 
130 1.69402e-15 3.96277e-15 5.32631e-16 
134 9.32343e-15 4.93062e-15 1.64787e-14 
138 1.81053e-14 -1.99081e-15 3.00286e-14 
142 1.9145e-14 -8.22474e-15 2.74483e-14 
146 1.0863e-15 3.06116e-15 9.39085e-15 
150 4.02851e-15 1.07548e-16 8.31866e-15 
154 1.36235e-14 -8.44808e-15 3.9492e-14 
158 1.14353e-15 -9.39656e-15 1.3142e-14 
162 0 0 0 
166 -1.07081e-15 6.86712e-15 3.06982e-14 
170 8.57339e-16 -6.04292e-16 4.54172e-15 
174 0 0 0 
178 -3.06933e-15 5.12742e-16 1.14544e-15 
182 -3.78754e-15 4.33721e-15 5.01361e-15 
186 -4.57616e-15 -1.67035e-15 7.30084e-15 
190 0 0 0 
3 -3.37527e-15 2.61142e-15 2.9591e-15 
7 0 0 0 
11 0 0 0 
15 0 0 0 
19 0 0 0 
23 0 0 0 
27 0 0 0 
31 0 0 0 
35 0 0 0 
39 0 0 0 
43 0 0 0 
47 0 0 0 
51 -5.42091e-16 -2.3154e-16 1.22319e-15 
55 0 0 0 
59 0 0 0 
63 0 0 0 
67 1.01563e-14 -1.50816e-14 1.34622e-14 
71 1.68837e-14 -3.6555e-14 7.90262e-15 
75 2.50041e-14 -3.70551e-14 -1.16324e-14 
79 2.19755e-14 -2.13217e-14 -1.68946e-14 
83 2.24733e-16 -4.4106e-15 6.41587e-15 
87 7.42129e-15 -1.29337e-14 3.27686e-15 
91 1.48585e-14 -3.97412e-14 -4.79029e-15 
95 5.28708e-15 -1.00108e-14 -1.35206e-15 
99 4.8675e-16 -3.31426e-15 3.84616e-15 
103 0 0 0 
107 -2.45219e-15 -9.76139e-15 -8.41644e-16 
111 2.00041e-15 -7.92883e-15 -4.1029e-15 
115 -2.63171e-15 -3.24909e-15 4.95242e-15 
119 0 0 0 
123 0 0 0 
127 0 0 0 
131 5.8835e-15 5.68442e-15 -1.50581e-14 
135 3.17689e-14 1.27287e-14 -4.42057e-14 
139 2.61961e-14 -6.25691e-15 -2.47362e-14 
143 1.16543e-14 -8.58214e-15 -1.08917e-14 
147 6.44374e-16 9.38944e-15 -1.23986e-14 
151 3.1399e-15 5.72013e-15 -2.17819e-14 
155 1.14519e-14 -9.39694e-15 -3.02036e-14 
159 7.97616e-15 -1.33712e-14 -2.03973e-14 
163 0 0 0 
167 -5.00553e-15 5.38462e-15 -1.69988e-14 
171 -3.51628e-15 -1.55055e-15 -2.38027e-14 
175 -2.2205e-15 -1.0145e-14 -7.64665e-15 
179 -1.36897e-15 3.52782e-16 -2.23353e-15 
183 -1.1754e-15 1.06536e-15 -4.90793e-15 
187 0 0 0 
191 -2.93211e-15 -2.26705e-15 -2.1098e-15 
4 -4.33209e-15 5.41815e-15 2.15716e-15 
8 -2.06853e-15 1.64423e-15 -4.60892e-16 
12 0 0 0 
16 0 0 0 
20 0 0 0 
24 0 0 0 
28 0 0 0 
32 0 0 0 
36 0 0 0 
40 -3.99622e-15 -1.52259e-16 2.85012e-15 
44 0 0 0 
48 -2.15376e-15 -2.59019e-16 -1.0915e-15 
52 0 0 0 
56 0 0 0 
60 -5.64758e-15 -2.27584e-15 8.53808e-17 
64 0 0 0 
68 4.25477e-14 -4.93942e-14 3.81181e-14 
72 1.3263e-14 -1.50929e-14 9.47831e-15 
76 5.3409e-15 -1.2592e-14 -3.68488e-15 
80 3.64962e-14 -5.49416e-14 -3.83492e-14 
84 2.29511e-16 -3.0231e-15 -7.73164e-16 
88 1.90413e-14 -4.64108e-14 9.67637e-15 
92 1.67364e-17 -8.75961e-15 -1.10565e-15 
96 3.85467e-15 -1.58346e-14 -1.10453e-14 
100 -3.6271e-15 -1.8886e-14 1.0534e-14 
104 4.77038e-16 -5.31027e-15 -1.50244e-16 
108 -2.84954e-15 -1.33339e-14 -2.95135e-15 
112 2.77072e-15 -7.60134e-15 -5.65005e-15 
116 -2.23499e-15 -6.70699e-15 3.28406e-15 
120 0 0 0 
124 0 0 0 
128 -3.75553e-15 -1.30725e-14 -1.21076e-14 
132 2.56163e-14 2.87198e-14 -4.02983e-14 
136 7.06388e-15 2.14484e-15 -8.16168e-15 
140 1.01066e-14 1.36819e-15 -1.46501e-14 
144 5.02011e-15 -2.62076e-15 -7.2119e-15 
148 2.3716e-15 6.1771e-15 -5.59869e-15 
152 1.08838e-14 5.54588e-15 -2.46654e-14 
156 1.20695e-14 -9.65677e-15 -3.70693e-14 
160 5.12617e-15 -1.91024e-14 -2.99089e-14 
164 0 0 0 
168 -7.46597e-15 4.32499e-15 -2.15961e-14 
172 -3.92609e-15 -9.8696e-16 -4.61616e-15 
176 -1.08442e-15 -5.83386e-15 -6.91845e-15 
180 0 0 0 
184 -2.58805e-15 -7.26043e-16 -4.5554e-15 
188 0 0 0 
192 -7.90539e-15 -1.15297e-14 -1.30098e-14 
