ITEM: TIMESTEP
25000
ITEM: NUMBER OF SURFS
192
ITEM: BOX BOUNDS oo rr rr
0 5e-06
0 5e-06
0 5e-06
ITEM: SURFS id f_ID_drag_fix[1] f_ID_drag_fix[2] f_ID_drag_fix[3] 
1 0 0 0 
5 0 0 0 
9 0 0 0 
13 0 0 0 
17 0 0 0 
21 0 0 0 
25 0 0 0 
29 0 0 0 
33 0 0 0 
37 0 0 0 
41 0 0 0 
45 0 0 0 
49 0 0 0 
53 0 0 0 
57 0 0 0 
61 0 0 0 
65 0 0 0 
69 0 0 0 
73 0 0 0 
77 0 0 0 
81 0 0 0 
85 0 0 0 
89 0 0 0 
93 0 0 0 
97 0 0 0 
101 0 0 0 
105 0 0 0 
109 0 0 0 
113 0 0 0 
117 0 0 0 
121 0 0 0 
125 0 0 0 
129 0 0 0 
133 0 0 0 
137 0 0 0 
141 0 0 0 
145 0 0 0 
149 0 0 0 
153 0 0 0 
157 0 0 0 
161 0 0 0 
165 0 0 0 
169 0 0 0 
173 0 0 0 
177 0 0 0 
181 0 0 0 
185 0 0 0 
189 0 0 0 
2 0 0 0 
6 0 0 0 
10 0 0 0 
14 0 0 0 
18 0 0 0 
22 0 0 0 
26 0 0 0 
30 0 0 0 
34 0 0 0 
38 0 0 0 
42 0 0 0 
46 0 0 0 
50 0 0 0 
54 0 0 0 
58 0 0 0 
62 0 0 0 
66 0 0 0 
70 0 0 0 
74 0 0 0 
78 0 0 0 
82 0 0 0 
86 0 0 0 
90 0 0 0 
94 0 0 0 
98 0 0 0 
102 0 0 0 
106 0 0 0 
110 0 0 0 
114 0 0 0 
118 0 0 0 
122 0 0 0 
126 0 0 0 
130 0 0 0 
134 0 0 0 
138 0 0 0 
142 0 0 0 
146 0 0 0 
150 0 0 0 
154 0 0 0 
158 0 0 0 
162 0 0 0 
166 0 0 0 
170 0 0 0 
174 0 0 0 
178 0 0 0 
182 0 0 0 
186 0 0 0 
190 0 0 0 
3 0 0 0 
7 0 0 0 
11 0 0 0 
15 0 0 0 
19 0 0 0 
23 0 0 0 
27 0 0 0 
31 0 0 0 
35 0 0 0 
39 0 0 0 
43 0 0 0 
47 0 0 0 
51 0 0 0 
55 0 0 0 
59 0 0 0 
63 0 0 0 
67 0 0 0 
71 0 0 0 
75 0 0 0 
79 0 0 0 
83 0 0 0 
87 0 0 0 
91 0 0 0 
95 0 0 0 
99 0 0 0 
103 0 0 0 
107 0 0 0 
111 0 0 0 
115 0 0 0 
119 0 0 0 
123 0 0 0 
127 0 0 0 
131 0 0 0 
135 0 0 0 
139 0 0 0 
143 0 0 0 
147 0 0 0 
151 0 0 0 
155 0 0 0 
159 0 0 0 
163 0 0 0 
167 0 0 0 
171 0 0 0 
175 0 0 0 
179 0 0 0 
183 0 0 0 
187 0 0 0 
191 0 0 0 
4 0 0 0 
8 0 0 0 
12 0 0 0 
16 0 0 0 
20 0 0 0 
24 0 0 0 
28 0 0 0 
32 0 0 0 
36 0 0 0 
40 0 0 0 
44 0 0 0 
48 0 0 0 
52 0 0 0 
56 0 0 0 
60 0 0 0 
64 0 0 0 
68 0 0 0 
72 0 0 0 
76 0 0 0 
80 0 0 0 
84 0 0 0 
88 0 0 0 
92 0 0 0 
96 0 0 0 
100 0 0 0 
104 0 0 0 
108 0 0 0 
112 0 0 0 
116 0 0 0 
120 0 0 0 
124 0 0 0 
128 0 0 0 
132 0 0 0 
136 0 0 0 
140 0 0 0 
144 0 0 0 
148 0 0 0 
152 0 0 0 
156 0 0 0 
160 0 0 0 
164 0 0 0 
168 0 0 0 
172 0 0 0 
176 0 0 0 
180 0 0 0 
184 0 0 0 
188 0 0 0 
192 0 0 0 
ITEM: TIMESTEP
50000
ITEM: NUMBER OF SURFS
192
ITEM: BOX BOUNDS oo rr rr
0 5e-06
0 5e-06
0 5e-06
ITEM: SURFS id f_ID_drag_fix[1] f_ID_drag_fix[2] f_ID_drag_fix[3] 
1 2.1306e-14 1.36273e-14 1.6037e-14 
5 2.76361e-14 1.81118e-14 6.74431e-15 
9 2.3096e-14 1.50986e-14 -6.19696e-15 
13 1.56193e-14 1.07759e-14 -1.13786e-14 
17 2.24755e-14 5.51016e-15 1.42781e-14 
21 5.015e-14 9.78198e-15 1.07437e-14 
25 5.55406e-14 1.25287e-14 -1.40148e-14 
29 2.56333e-14 6.10119e-15 -1.71693e-14 
33 2.98334e-14 -5.26934e-15 1.80796e-14 
37 4.88945e-14 -9.66543e-15 9.94388e-15 
41 5.14849e-14 -1.23976e-14 -1.00198e-14 
45 2.90138e-14 -6.86038e-15 -1.83925e-14 
49 4.01645e-14 -2.23391e-14 2.23549e-14 
53 2.46785e-14 -1.38607e-14 4.11748e-15 
57 2.46341e-14 -1.71583e-14 -5.22102e-15 
61 2.49396e-14 -1.78426e-14 -1.51388e-14 
65 1.15927e-14 1.49552e-14 1.24804e-14 
69 1.36515e-14 1.77837e-14 4.69344e-15 
73 1.40413e-14 1.84953e-14 -4.53227e-15 
77 1.14107e-14 1.23183e-14 -1.06882e-14 
81 3.50927e-15 1.20967e-14 8.6286e-15 
85 5.75726e-15 2.03509e-14 4.91407e-15 
89 8.11598e-15 2.65103e-14 -6.48791e-15 
93 3.85241e-15 1.20605e-14 -8.80796e-15 
97 -1.03908e-15 8.31759e-15 5.1099e-15 
101 -8.05138e-16 9.09022e-15 2.64603e-15 
105 -1.56909e-15 1.19298e-14 -2.77726e-15 
109 -9.89941e-16 9.20061e-15 -5.40286e-15 
113 -2.36743e-15 5.75019e-15 3.60719e-15 
117 -1.92366e-15 3.71889e-15 2.10855e-16 
121 -1.31676e-15 2.98726e-15 -2.53605e-16 
125 -1.65935e-15 2.60709e-15 -1.8929e-15 
129 1.28414e-14 1.27909e-14 1.78807e-14 
133 1.3984e-14 5.09417e-15 1.86628e-14 
137 1.24147e-14 -4.37628e-15 1.62912e-14 
141 8.94827e-15 -8.7049e-15 1.02545e-14 
145 3.63203e-15 9.1086e-15 1.21991e-14 
149 6.44725e-15 4.30966e-15 2.09286e-14 
153 8.4489e-15 -6.73177e-15 2.5984e-14 
157 3.60009e-15 -7.54746e-15 9.81846e-15 
161 -8.1195e-16 5.08772e-15 7.88394e-15 
165 -1.0574e-15 1.81232e-15 9.78845e-15 
169 -1.56886e-15 -2.85993e-15 1.14436e-14 
173 -7.4215e-16 -3.95557e-15 7.45934e-15 
177 -1.99302e-15 2.2841e-15 3.93069e-15 
181 -1.47922e-15 3.04766e-16 2.69949e-15 
185 -1.5159e-15 -4.83122e-16 1.93901e-15 
189 -1.08977e-15 -1.07794e-15 1.83545e-15 
2 2.2295e-14 1.62919e-14 1.28224e-14 
6 2.68061e-14 1.87323e-14 5.60148e-15 
10 3.00983e-14 1.8771e-14 -5.73595e-15 
14 4.01184e-14 2.05198e-14 -2.15149e-14 
18 3.1167e-14 6.62184e-15 1.83421e-14 
22 5.3856e-14 1.25895e-14 1.23928e-14 
26 4.28292e-14 8.58639e-15 -7.95678e-15 
30 3.57511e-14 6.3193e-15 -2.18027e-14 
34 2.65351e-14 -7.16953e-15 1.70443e-14 
38 6.26324e-14 -1.41704e-14 1.22959e-14 
42 5.77216e-14 -1.11879e-14 -1.34671e-14 
46 2.77716e-14 -5.39849e-15 -1.93396e-14 
50 1.41793e-14 -1.05325e-14 1.12836e-14 
54 2.70331e-14 -1.82795e-14 6.52525e-15 
58 2.74883e-14 -1.68072e-14 -7.70579e-15 
62 2.25701e-14 -1.36391e-14 -1.60492e-14 
66 1.38563e-14 1.7378e-14 1.202e-14 
70 1.4468e-14 1.84932e-14 3.82283e-15 
74 1.43699e-14 1.99562e-14 -4.52359e-15 
78 1.7039e-14 2.47806e-14 -1.4809e-14 
82 3.73496e-15 1.24228e-14 7.90347e-15 
86 4.33005e-15 1.62809e-14 3.50428e-15 
90 5.75046e-15 2.03421e-14 -3.95063e-15 
94 3.43851e-15 1.60595e-14 -1.01333e-14 
98 -7.64328e-16 6.35586e-15 4.49472e-15 
102 -1.72461e-15 9.68746e-15 2.42207e-15 
106 -1.02228e-15 8.67092e-15 -1.5113e-15 
110 -8.96946e-16 5.7595e-15 -4.00879e-15 
114 -8.38274e-16 1.2495e-15 1.19358e-15 
118 -1.86072e-15 2.28418e-15 3.3183e-16 
122 -1.93878e-15 4.18456e-15 -1.3839e-15 
126 -1.97776e-15 4.42947e-15 -3.48219e-15 
130 1.35527e-14 1.02027e-14 1.57055e-14 
134 1.36844e-14 3.89113e-15 1.78712e-14 
138 1.74434e-14 -4.89983e-15 2.43554e-14 
142 1.64792e-14 -1.414e-14 2.50157e-14 
146 4.13318e-15 8.33698e-15 1.30502e-14 
150 6.14233e-15 3.82361e-15 2.00141e-14 
154 4.43251e-15 -3.35072e-15 1.73494e-14 
158 2.68492e-15 -7.27246e-15 1.18991e-14 
162 -1.24736e-15 3.35887e-15 5.31642e-15 
166 -2.07543e-15 3.33921e-15 1.26179e-14 
170 -1.19856e-15 -1.7147e-15 8.04705e-15 
174 -1.02692e-15 -3.74166e-15 5.57493e-15 
178 -1.13468e-15 1.37489e-15 1.72703e-15 
182 -6.41604e-16 1.57339e-16 1.03954e-15 
186 -2.15377e-15 -3.2106e-16 4.69505e-15 
190 -1.28239e-15 -2.02213e-15 2.52162e-15 
3 -4.24897e-16 1.20419e-16 6.11055e-16 
7 -1.0646e-16 6.32335e-17 1.38251e-17 
11 -6.00838e-16 6.36191e-16 -1.80347e-16 
15 -6.47686e-16 9.68661e-16 -8.12829e-16 
19 -8.96373e-16 3.05678e-16 8.76869e-16 
23 -5.94902e-17 -4.09948e-17 8.53878e-17 
27 -4.24003e-16 1.03117e-16 -7.18942e-17 
31 -7.17013e-16 2.76699e-16 -5.86441e-16 
35 -4.33041e-16 -5.7561e-17 3.9152e-16 
39 0 0 0 
43 -1.23146e-16 4.16832e-18 -1.34241e-17 
47 -4.95976e-16 -4.36697e-17 -1.48071e-16 
51 -1.09565e-15 -6.07094e-16 9.24454e-16 
55 -3.57709e-16 -2.24207e-16 2.93502e-18 
59 -8.90816e-16 -1.09876e-15 -1.18717e-16 
63 -6.6606e-16 -9.29074e-16 -6.89454e-16 
67 1.17706e-14 -1.67529e-14 1.23889e-14 
71 1.18364e-14 -1.66845e-14 3.90912e-15 
75 1.54345e-14 -1.95606e-14 -5.7002e-15 
79 1.12443e-14 -1.21785e-14 -1.04559e-14 
83 3.33754e-15 -1.11336e-14 7.75494e-15 
87 6.28797e-15 -2.14117e-14 5.65219e-15 
91 6.57359e-15 -2.25367e-14 -5.51162e-15 
95 3.93313e-15 -1.11533e-14 -7.60929e-15 
99 -8.85257e-16 -9.79341e-15 6.35405e-15 
103 -1.94665e-15 -1.19338e-14 2.63449e-15 
107 -1.96698e-15 -1.02844e-14 -2.33574e-15 
111 -1.14594e-15 -5.67033e-15 -2.98888e-15 
115 -2.27232e-15 -5.02994e-15 2.68055e-15 
119 -2.74839e-15 -4.35461e-15 7.42347e-16 
123 -1.3703e-15 -3.18683e-15 -9.74073e-16 
127 -1.32316e-15 -1.84239e-15 -1.39162e-15 
131 1.28542e-14 1.34901e-14 -1.86577e-14 
135 1.4375e-14 5.11432e-15 -2.10058e-14 
139 1.54792e-14 -5.17298e-15 -1.91663e-14 
143 1.05597e-14 -1.0069e-14 -1.1598e-14 
147 3.01113e-15 8.21741e-15 -1.09876e-14 
151 4.46402e-15 4.6322e-15 -1.82567e-14 
155 7.35034e-15 -5.39018e-15 -2.44717e-14 
159 3.57737e-15 -9.0381e-15 -1.27355e-14 
163 -6.50158e-16 5.31082e-15 -8.29623e-15 
167 -1.88664e-15 3.06949e-15 -1.33116e-14 
171 -1.30428e-15 -1.97838e-15 -1.1362e-14 
175 -8.81384e-16 -4.11177e-15 -6.4574e-15 
179 -2.58881e-15 4.18506e-15 -6.62757e-15 
183 -1.51039e-15 7.54864e-16 -3.42123e-15 
187 -1.44887e-15 -6.55181e-16 -2.32094e-15 
191 -1.53407e-15 -1.53994e-15 -3.02096e-15 
4 -1.52733e-15 1.29469e-15 1.23447e-15 
8 -7.41305e-16 8.40408e-16 1.90713e-16 
12 -5.81508e-16 4.91947e-16 -9.33261e-17 
16 -1.64066e-15 1.1401e-15 -9.31696e-16 
20 -1.68248e-15 2.09339e-16 1.05699e-15 
24 -1.18393e-16 3.71375e-17 1.77594e-18 
28 0 0 0 
32 -4.85427e-16 2.50321e-16 -4.82109e-16 
36 -3.97015e-16 -1.27251e-16 3.84089e-16 
40 -4.65125e-17 -2.95254e-17 4.48896e-17 
44 -1.5653e-16 -3.71763e-17 3.07496e-17 
48 -3.14186e-16 -8.95605e-17 -4.68546e-16 
52 -1.03444e-15 -9.97279e-16 1.1705e-15 
56 -3.84896e-16 -3.75127e-16 2.23792e-16 
60 -7.99876e-16 -6.91171e-16 -2.68738e-16 
64 -8.99069e-16 -8.02858e-16 -7.77875e-16 
68 1.52133e-14 -1.73791e-14 1.13273e-14 
72 1.46637e-14 -1.85262e-14 4.18899e-15 
76 1.24941e-14 -1.81477e-14 -4.03101e-15 
80 1.71468e-14 -2.63668e-14 -1.47613e-14 
84 3.69284e-15 -1.14718e-14 7.60187e-15 
88 4.89053e-15 -1.76813e-14 3.93973e-15 
92 5.00447e-15 -1.74948e-14 -3.63033e-15 
96 2.09201e-15 -1.08285e-14 -6.87132e-15 
100 -1.26438e-15 -7.77573e-15 5.31201e-15 
104 -1.08621e-15 -1.0505e-14 2.15924e-15 
108 -9.38489e-16 -8.63687e-15 -2.07621e-15 
112 -9.68799e-16 -6.59475e-15 -4.75055e-15 
116 -8.81376e-16 -1.57236e-15 1.28592e-15 
120 -1.72765e-15 -2.92153e-15 7.39601e-16 
124 -6.96238e-16 -1.63555e-15 -3.25861e-16 
128 -1.72291e-15 -2.95221e-15 -2.28778e-15 
132 1.67611e-14 1.31895e-14 -1.87966e-14 
136 1.26761e-14 3.40324e-15 -1.75631e-14 
140 1.61973e-14 -4.81906e-15 -2.30469e-14 
144 1.73755e-14 -1.53619e-14 -2.76275e-14 
148 4.73631e-15 9.36712e-15 -1.43162e-14 
152 6.12593e-15 4.32583e-15 -1.92233e-14 
156 5.24214e-15 -4.04344e-15 -1.84923e-14 
160 3.54455e-15 -7.87953e-15 -1.23022e-14 
164 -1.09195e-15 4.76796e-15 -7.27738e-15 
168 -2.00745e-15 3.28184e-15 -1.22921e-14 
172 -1.76767e-15 -1.93007e-15 -9.65033e-15 
176 -5.80254e-16 -5.6144e-15 -7.38787e-15 
180 -1.78415e-15 1.99562e-15 -2.53596e-15 
184 -1.61897e-15 6.41049e-16 -2.1786e-15 
188 -1.80849e-15 -9.90766e-16 -3.67531e-15 
192 -1.78557e-15 -2.56254e-15 -3.79852e-15 
