ITEM: TIMESTEP
25000
ITEM: NUMBER OF SURFS
192
ITEM: BOX BOUNDS oo rr rr
0 5e-06
0 5e-06
0 5e-06
ITEM: SURFS id f_ID_drag_fix[1] f_ID_drag_fix[2] f_ID_drag_fix[3] 
1 0 0 0 
5 0 0 0 
9 0 0 0 
13 0 0 0 
17 0 0 0 
21 0 0 0 
25 0 0 0 
29 0 0 0 
33 0 0 0 
37 0 0 0 
41 0 0 0 
45 0 0 0 
49 0 0 0 
53 0 0 0 
57 0 0 0 
61 0 0 0 
65 0 0 0 
69 0 0 0 
73 0 0 0 
77 0 0 0 
81 0 0 0 
85 0 0 0 
89 0 0 0 
93 0 0 0 
97 0 0 0 
101 0 0 0 
105 0 0 0 
109 0 0 0 
113 0 0 0 
117 0 0 0 
121 0 0 0 
125 0 0 0 
129 0 0 0 
133 0 0 0 
137 0 0 0 
141 0 0 0 
145 0 0 0 
149 0 0 0 
153 0 0 0 
157 0 0 0 
161 0 0 0 
165 0 0 0 
169 0 0 0 
173 0 0 0 
177 0 0 0 
181 0 0 0 
185 0 0 0 
189 0 0 0 
2 0 0 0 
6 0 0 0 
10 0 0 0 
14 0 0 0 
18 0 0 0 
22 0 0 0 
26 0 0 0 
30 0 0 0 
34 0 0 0 
38 0 0 0 
42 0 0 0 
46 0 0 0 
50 0 0 0 
54 0 0 0 
58 0 0 0 
62 0 0 0 
66 0 0 0 
70 0 0 0 
74 0 0 0 
78 0 0 0 
82 0 0 0 
86 0 0 0 
90 0 0 0 
94 0 0 0 
98 0 0 0 
102 0 0 0 
106 0 0 0 
110 0 0 0 
114 0 0 0 
118 0 0 0 
122 0 0 0 
126 0 0 0 
130 0 0 0 
134 0 0 0 
138 0 0 0 
142 0 0 0 
146 0 0 0 
150 0 0 0 
154 0 0 0 
158 0 0 0 
162 0 0 0 
166 0 0 0 
170 0 0 0 
174 0 0 0 
178 0 0 0 
182 0 0 0 
186 0 0 0 
190 0 0 0 
3 0 0 0 
7 0 0 0 
11 0 0 0 
15 0 0 0 
19 0 0 0 
23 0 0 0 
27 0 0 0 
31 0 0 0 
35 0 0 0 
39 0 0 0 
43 0 0 0 
47 0 0 0 
51 0 0 0 
55 0 0 0 
59 0 0 0 
63 0 0 0 
67 0 0 0 
71 0 0 0 
75 0 0 0 
79 0 0 0 
83 0 0 0 
87 0 0 0 
91 0 0 0 
95 0 0 0 
99 0 0 0 
103 0 0 0 
107 0 0 0 
111 0 0 0 
115 0 0 0 
119 0 0 0 
123 0 0 0 
127 0 0 0 
131 0 0 0 
135 0 0 0 
139 0 0 0 
143 0 0 0 
147 0 0 0 
151 0 0 0 
155 0 0 0 
159 0 0 0 
163 0 0 0 
167 0 0 0 
171 0 0 0 
175 0 0 0 
179 0 0 0 
183 0 0 0 
187 0 0 0 
191 0 0 0 
4 0 0 0 
8 0 0 0 
12 0 0 0 
16 0 0 0 
20 0 0 0 
24 0 0 0 
28 0 0 0 
32 0 0 0 
36 0 0 0 
40 0 0 0 
44 0 0 0 
48 0 0 0 
52 0 0 0 
56 0 0 0 
60 0 0 0 
64 0 0 0 
68 0 0 0 
72 0 0 0 
76 0 0 0 
80 0 0 0 
84 0 0 0 
88 0 0 0 
92 0 0 0 
96 0 0 0 
100 0 0 0 
104 0 0 0 
108 0 0 0 
112 0 0 0 
116 0 0 0 
120 0 0 0 
124 0 0 0 
128 0 0 0 
132 0 0 0 
136 0 0 0 
140 0 0 0 
144 0 0 0 
148 0 0 0 
152 0 0 0 
156 0 0 0 
160 0 0 0 
164 0 0 0 
168 0 0 0 
172 0 0 0 
176 0 0 0 
180 0 0 0 
184 0 0 0 
188 0 0 0 
192 0 0 0 
ITEM: TIMESTEP
50000
ITEM: NUMBER OF SURFS
192
ITEM: BOX BOUNDS oo rr rr
0 5e-06
0 5e-06
0 5e-06
ITEM: SURFS id f_ID_drag_fix[1] f_ID_drag_fix[2] f_ID_drag_fix[3] 
1 2.30963e-14 1.39851e-14 1.68357e-14 
5 2.79179e-14 1.63516e-14 6.67547e-15 
9 2.12352e-14 1.4277e-14 -5.14048e-15 
13 1.3784e-14 1.04357e-14 -1.01253e-14 
17 3.03982e-14 5.92792e-15 2.04699e-14 
21 5.11636e-14 1.01274e-14 1.14816e-14 
25 5.60014e-14 1.24933e-14 -1.25849e-14 
29 2.16243e-14 5.3415e-15 -1.50803e-14 
33 3.20002e-14 -6.23751e-15 1.92506e-14 
37 5.06985e-14 -1.06166e-14 1.02869e-14 
41 5.1314e-14 -1.19685e-14 -1.08562e-14 
45 2.82138e-14 -7.90143e-15 -1.73741e-14 
49 3.75048e-14 -2.01689e-14 1.97973e-14 
53 3.29865e-14 -1.96374e-14 6.08643e-15 
57 2.54395e-14 -1.78043e-14 -5.09924e-15 
61 1.92787e-14 -1.39799e-14 -1.18334e-14 
65 1.14895e-14 1.60427e-14 1.27324e-14 
69 1.33754e-14 1.86998e-14 4.83468e-15 
73 1.23969e-14 1.65591e-14 -3.99751e-15 
77 1.1773e-14 1.21441e-14 -1.00657e-14 
81 3.22864e-15 1.18813e-14 8.899e-15 
85 6.3039e-15 2.0171e-14 4.55466e-15 
89 7.83476e-15 2.57173e-14 -6.33801e-15 
93 3.89341e-15 1.25187e-14 -8.4934e-15 
97 -6.6253e-16 8.37135e-15 4.76839e-15 
101 -9.23507e-16 1.24532e-14 2.58071e-15 
105 -1.77486e-15 1.11542e-14 -2.56096e-15 
109 -1.02609e-15 5.48092e-15 -3.51984e-15 
113 -2.49665e-15 6.5977e-15 4.06748e-15 
117 -2.1378e-15 3.21251e-15 6.31655e-16 
121 -2.12636e-15 3.73458e-15 -6.82515e-16 
125 -1.60367e-15 2.64145e-15 -1.79971e-15 
129 1.1842e-14 1.29745e-14 1.67961e-14 
133 1.44581e-14 5.18542e-15 1.97689e-14 
137 1.33162e-14 -4.84179e-15 1.77816e-14 
141 1.16928e-14 -1.02779e-14 1.25463e-14 
145 3.72927e-15 9.42158e-15 1.32359e-14 
149 6.54669e-15 5.12592e-15 2.2575e-14 
153 6.86427e-15 -6.05101e-15 2.23278e-14 
157 4.07463e-15 -9.82265e-15 1.41509e-14 
161 -7.07061e-16 5.21467e-15 8.04006e-15 
165 -1.817e-15 2.83867e-15 1.19825e-14 
169 -1.29406e-15 -2.81351e-15 1.09573e-14 
173 -1.16556e-15 -5.13045e-15 7.479e-15 
177 -2.28952e-15 3.17534e-15 5.52326e-15 
181 -1.94424e-15 9.20299e-16 4.05154e-15 
185 -1.38322e-15 -3.60374e-16 2.76098e-15 
189 -2.03421e-15 -2.06649e-15 3.46825e-15 
2 2.02201e-14 1.4532e-14 1.18293e-14 
6 2.63263e-14 1.81167e-14 5.62136e-15 
10 2.9752e-14 1.77305e-14 -5.23537e-15 
14 3.88052e-14 2.18444e-14 -2.17087e-14 
18 2.82129e-14 6.80724e-15 1.65598e-14 
22 4.78313e-14 1.12556e-14 9.05892e-15 
26 5.08538e-14 9.94113e-15 -9.69152e-15 
30 3.28066e-14 5.71406e-15 -1.95297e-14 
34 2.19289e-14 -5.14952e-15 1.45313e-14 
38 5.77124e-14 -1.32468e-14 1.33212e-14 
42 4.90294e-14 -1.0774e-14 -1.09367e-14 
46 2.71551e-14 -4.98497e-15 -1.84868e-14 
50 1.53573e-14 -1.15596e-14 1.14843e-14 
54 2.4455e-14 -1.70843e-14 5.89169e-15 
58 2.8459e-14 -1.82555e-14 -6.73939e-15 
62 2.08499e-14 -1.27267e-14 -1.48008e-14 
66 1.58481e-14 1.91145e-14 1.24216e-14 
70 1.41347e-14 1.83888e-14 3.68942e-15 
74 1.27408e-14 1.81362e-14 -3.10145e-15 
78 1.51833e-14 2.32942e-14 -1.34848e-14 
82 3.86662e-15 1.20835e-14 8.41434e-15 
86 5.97638e-15 2.13512e-14 4.73066e-15 
90 4.71879e-15 1.86185e-14 -3.52436e-15 
94 3.44925e-15 1.41197e-14 -9.13779e-15 
98 -1.30445e-15 6.40355e-15 4.25794e-15 
102 -1.32773e-15 9.9667e-15 2.47687e-15 
106 -1.41409e-15 1.02597e-14 -2.55127e-15 
110 -4.80466e-16 7.14889e-15 -5.23271e-15 
114 -7.08471e-16 1.46062e-15 1.05083e-15 
118 -1.58238e-15 3.03034e-15 6.70063e-16 
122 -2.0506e-15 3.6455e-15 -1.07269e-15 
126 -1.65605e-15 2.89277e-15 -2.37343e-15 
130 1.29883e-14 9.55889e-15 1.53766e-14 
134 1.50732e-14 5.06079e-15 2.01152e-14 
138 1.41778e-14 -4.1457e-15 2.01106e-14 
142 1.87441e-14 -1.67807e-14 2.81657e-14 
146 3.11324e-15 6.71933e-15 1.03824e-14 
150 6.50964e-15 5.29232e-15 2.1579e-14 
154 4.88702e-15 -3.90081e-15 1.7614e-14 
158 3.24524e-15 -7.51282e-15 1.15683e-14 
162 -8.31136e-16 3.70075e-15 5.27535e-15 
166 -1.66258e-15 2.49313e-15 9.91509e-15 
170 -1.07956e-15 -2.24695e-15 9.51412e-15 
174 -5.85458e-16 -3.24201e-15 4.94256e-15 
178 -1.40641e-15 1.52776e-15 2.1465e-15 
182 -1.23181e-15 6.49806e-16 2.01787e-15 
186 -1.10509e-15 -3.80646e-16 2.48694e-15 
190 -2.16491e-15 -2.91226e-15 4.23685e-15 
3 -1.14996e-15 7.91855e-16 1.22067e-15 
7 -6.37032e-16 6.24452e-16 1.06196e-16 
11 -6.72703e-16 6.4784e-16 -2.90507e-16 
15 -1.09829e-15 9.76196e-16 -1.12335e-15 
19 -4.84324e-16 1.38392e-16 4.08219e-16 
23 -1.18302e-16 2.14101e-17 4.35907e-17 
27 -1.28015e-16 9.47581e-18 -4.4908e-18 
31 -4.48722e-16 9.09942e-17 -4.07458e-16 
35 -7.5942e-16 -1.77623e-16 6.0474e-16 
39 -2.12033e-16 -1.09519e-16 1.46725e-16 
43 -1.22455e-16 -1.22778e-16 -1.14647e-16 
47 -4.05404e-16 -1.80263e-16 -3.8354e-16 
51 -1.26e-15 -1.02989e-15 9.55732e-16 
55 -4.35027e-16 -3.60678e-16 1.3308e-17 
59 -6.22314e-16 -5.23349e-16 -2.45845e-16 
63 -1.51247e-15 -1.43521e-15 -9.64328e-16 
67 1.06082e-14 -1.4047e-14 1.12657e-14 
71 1.40526e-14 -1.98083e-14 4.91537e-15 
75 1.66607e-14 -2.20048e-14 -5.98051e-15 
79 1.18894e-14 -1.36612e-14 -1.11507e-14 
83 3.07913e-15 -1.32567e-14 9.65428e-15 
87 5.42623e-15 -1.96359e-14 4.11707e-15 
91 6.88539e-15 -2.55782e-14 -6.37016e-15 
95 4.24421e-15 -1.31282e-14 -9.43018e-15 
99 -1.02314e-15 -7.93912e-15 5.00318e-15 
103 -1.40982e-15 -1.30975e-14 2.67855e-15 
107 -1.66711e-15 -1.14026e-14 -2.12662e-15 
111 -9.3819e-16 -6.07893e-15 -4.42643e-15 
115 -2.25134e-15 -5.55234e-15 3.27035e-15 
119 -2.19667e-15 -4.22025e-15 7.84401e-16 
123 -1.09704e-15 -2.2682e-15 -4.87938e-16 
127 -1.13735e-15 -2.0342e-15 -1.30142e-15 
131 1.14511e-14 1.25659e-14 -1.60556e-14 
135 1.29068e-14 4.81507e-15 -1.81893e-14 
139 1.60326e-14 -5.3301e-15 -2.06033e-14 
143 1.10452e-14 -1.04688e-14 -1.18365e-14 
147 3.95213e-15 8.98153e-15 -1.2841e-14 
151 6.10536e-15 4.75835e-15 -2.18845e-14 
155 8.87257e-15 -7.10665e-15 -2.83194e-14 
159 3.96878e-15 -8.79816e-15 -1.20763e-14 
163 -9.48714e-16 4.76795e-15 -7.72709e-15 
167 -1.21203e-15 1.88164e-15 -1.02953e-14 
171 -1.60103e-15 -1.99024e-15 -1.23811e-14 
175 -4.72844e-16 -4.01233e-15 -6.43955e-15 
179 -3.24677e-15 4.02997e-15 -7.20416e-15 
183 -1.74469e-15 7.10249e-16 -3.81026e-15 
187 -1.80092e-15 -6.42304e-16 -3.19931e-15 
191 -1.17051e-15 -1.0331e-15 -1.895e-15 
4 -1.33037e-15 1.42575e-15 1.21252e-15 
8 -3.78315e-16 4.20294e-16 2.27646e-17 
12 -7.10407e-16 7.65233e-16 -1.59018e-16 
16 -9.90718e-16 8.7946e-16 -7.55778e-16 
20 -6.67944e-16 2.55953e-16 6.59595e-16 
24 -4.49773e-17 -1.50873e-18 -2.03619e-17 
28 -1.18431e-16 4.83691e-17 -1.05408e-17 
32 -6.4626e-16 2.32574e-16 -7.30169e-16 
36 -7.70224e-16 -4.6918e-17 6.95592e-16 
40 -5.81418e-17 -3.65629e-17 2.9243e-17 
44 -9.93727e-17 -9.93829e-17 -4.86405e-17 
48 -9.10986e-16 -1.38007e-16 -8.1121e-16 
52 -7.48524e-16 -8.24738e-16 6.53044e-16 
56 -3.32398e-16 -2.35399e-16 2.10759e-16 
60 -3.72543e-16 -4.86205e-16 -1.0116e-16 
64 -6.83127e-16 -6.52189e-16 -7.24386e-16 
68 1.4441e-14 -1.77364e-14 1.179e-14 
72 1.22951e-14 -1.65069e-14 3.79119e-15 
76 1.45863e-14 -2.03172e-14 -4.35201e-15 
80 1.70772e-14 -2.56604e-14 -1.5288e-14 
84 3.1196e-15 -1.11965e-14 6.92414e-15 
88 5.81883e-15 -1.91649e-14 4.09634e-15 
92 4.70827e-15 -1.75792e-14 -3.64649e-15 
96 2.63851e-15 -1.1413e-14 -7.09955e-15 
100 -6.424e-16 -5.15111e-15 3.75888e-15 
104 -1.55701e-15 -1.10349e-14 2.42651e-15 
108 -1.4141e-15 -9.93467e-15 -2.2589e-15 
112 -5.9358e-16 -6.94564e-15 -4.71327e-15 
116 -9.88078e-16 -1.41431e-15 1.52717e-15 
120 -1.27205e-15 -2.4273e-15 6.28916e-16 
124 -1.61331e-15 -2.64542e-15 -7.41708e-16 
128 -1.56492e-15 -3.08309e-15 -2.52207e-15 
132 1.47026e-14 1.10737e-14 -1.73739e-14 
136 1.41231e-14 4.27529e-15 -1.88597e-14 
140 1.49988e-14 -4.63267e-15 -2.2034e-14 
144 1.87252e-14 -1.59722e-14 -2.74892e-14 
148 4.4875e-15 9.34433e-15 -1.38234e-14 
152 6.2894e-15 4.84582e-15 -2.20894e-14 
156 4.88511e-15 -3.6034e-15 -1.73579e-14 
160 2.8929e-15 -7.48349e-15 -1.14832e-14 
164 -1.01798e-15 4.6881e-15 -6.20663e-15 
168 -1.89364e-15 2.53204e-15 -1.11966e-14 
172 -2.03729e-15 -2.89301e-15 -1.15482e-14 
176 -8.87425e-16 -4.15205e-15 -5.68299e-15 
180 -1.12323e-15 1.32575e-15 -1.66786e-15 
184 -9.72494e-16 6.91118e-16 -2.59342e-15 
188 -1.257e-15 -4.94949e-16 -2.78249e-15 
192 -1.64226e-15 -2.6896e-15 -3.33437e-15 
