ITEM: TIMESTEP
25000
ITEM: NUMBER OF SURFS
192
ITEM: BOX BOUNDS oo rr rr
0 5e-06
0 5e-06
0 5e-06
ITEM: SURFS id f_ID_drag_fix[1] f_ID_drag_fix[2] f_ID_drag_fix[3] 
1 0 0 0 
5 0 0 0 
9 0 0 0 
13 0 0 0 
17 0 0 0 
21 0 0 0 
25 0 0 0 
29 0 0 0 
33 0 0 0 
37 0 0 0 
41 0 0 0 
45 0 0 0 
49 0 0 0 
53 0 0 0 
57 0 0 0 
61 0 0 0 
65 0 0 0 
69 0 0 0 
73 0 0 0 
77 0 0 0 
81 0 0 0 
85 0 0 0 
89 0 0 0 
93 0 0 0 
97 0 0 0 
101 0 0 0 
105 0 0 0 
109 0 0 0 
113 0 0 0 
117 0 0 0 
121 0 0 0 
125 0 0 0 
129 0 0 0 
133 0 0 0 
137 0 0 0 
141 0 0 0 
145 0 0 0 
149 0 0 0 
153 0 0 0 
157 0 0 0 
161 0 0 0 
165 0 0 0 
169 0 0 0 
173 0 0 0 
177 0 0 0 
181 0 0 0 
185 0 0 0 
189 0 0 0 
2 0 0 0 
6 0 0 0 
10 0 0 0 
14 0 0 0 
18 0 0 0 
22 0 0 0 
26 0 0 0 
30 0 0 0 
34 0 0 0 
38 0 0 0 
42 0 0 0 
46 0 0 0 
50 0 0 0 
54 0 0 0 
58 0 0 0 
62 0 0 0 
66 0 0 0 
70 0 0 0 
74 0 0 0 
78 0 0 0 
82 0 0 0 
86 0 0 0 
90 0 0 0 
94 0 0 0 
98 0 0 0 
102 0 0 0 
106 0 0 0 
110 0 0 0 
114 0 0 0 
118 0 0 0 
122 0 0 0 
126 0 0 0 
130 0 0 0 
134 0 0 0 
138 0 0 0 
142 0 0 0 
146 0 0 0 
150 0 0 0 
154 0 0 0 
158 0 0 0 
162 0 0 0 
166 0 0 0 
170 0 0 0 
174 0 0 0 
178 0 0 0 
182 0 0 0 
186 0 0 0 
190 0 0 0 
3 0 0 0 
7 0 0 0 
11 0 0 0 
15 0 0 0 
19 0 0 0 
23 0 0 0 
27 0 0 0 
31 0 0 0 
35 0 0 0 
39 0 0 0 
43 0 0 0 
47 0 0 0 
51 0 0 0 
55 0 0 0 
59 0 0 0 
63 0 0 0 
67 0 0 0 
71 0 0 0 
75 0 0 0 
79 0 0 0 
83 0 0 0 
87 0 0 0 
91 0 0 0 
95 0 0 0 
99 0 0 0 
103 0 0 0 
107 0 0 0 
111 0 0 0 
115 0 0 0 
119 0 0 0 
123 0 0 0 
127 0 0 0 
131 0 0 0 
135 0 0 0 
139 0 0 0 
143 0 0 0 
147 0 0 0 
151 0 0 0 
155 0 0 0 
159 0 0 0 
163 0 0 0 
167 0 0 0 
171 0 0 0 
175 0 0 0 
179 0 0 0 
183 0 0 0 
187 0 0 0 
191 0 0 0 
4 0 0 0 
8 0 0 0 
12 0 0 0 
16 0 0 0 
20 0 0 0 
24 0 0 0 
28 0 0 0 
32 0 0 0 
36 0 0 0 
40 0 0 0 
44 0 0 0 
48 0 0 0 
52 0 0 0 
56 0 0 0 
60 0 0 0 
64 0 0 0 
68 0 0 0 
72 0 0 0 
76 0 0 0 
80 0 0 0 
84 0 0 0 
88 0 0 0 
92 0 0 0 
96 0 0 0 
100 0 0 0 
104 0 0 0 
108 0 0 0 
112 0 0 0 
116 0 0 0 
120 0 0 0 
124 0 0 0 
128 0 0 0 
132 0 0 0 
136 0 0 0 
140 0 0 0 
144 0 0 0 
148 0 0 0 
152 0 0 0 
156 0 0 0 
160 0 0 0 
164 0 0 0 
168 0 0 0 
172 0 0 0 
176 0 0 0 
180 0 0 0 
184 0 0 0 
188 0 0 0 
192 0 0 0 
ITEM: TIMESTEP
50000
ITEM: NUMBER OF SURFS
192
ITEM: BOX BOUNDS oo rr rr
0 5e-06
0 5e-06
0 5e-06
ITEM: SURFS id f_ID_drag_fix[1] f_ID_drag_fix[2] f_ID_drag_fix[3] 
1 2.15748e-14 1.3053e-14 1.45882e-14 
5 2.52389e-14 1.60586e-14 6.24522e-15 
9 2.79144e-14 1.88356e-14 -5.00564e-15 
13 1.32657e-14 1.20829e-14 -1.1117e-14 
17 2.76399e-14 5.08274e-15 1.77508e-14 
21 5.93851e-14 1.16684e-14 1.19111e-14 
25 6.1544e-14 1.25545e-14 -1.47852e-14 
29 2.4998e-14 5.90878e-15 -1.63625e-14 
33 3.01935e-14 -5.05782e-15 1.90168e-14 
37 4.34199e-14 -7.75768e-15 7.82472e-15 
41 6.08786e-14 -1.26266e-14 -1.35368e-14 
45 2.41018e-14 -6.34802e-15 -1.5439e-14 
49 4.38037e-14 -2.56396e-14 2.27379e-14 
53 3.24241e-14 -1.84087e-14 5.9098e-15 
57 2.43182e-14 -1.59118e-14 -5.80489e-15 
61 2.17837e-14 -1.67258e-14 -1.30057e-14 
65 9.07827e-15 1.18662e-14 1.00512e-14 
69 1.1552e-14 1.61849e-14 3.47789e-15 
73 1.61185e-14 2.07009e-14 -5.27268e-15 
77 7.90174e-15 8.13486e-15 -7.57931e-15 
81 4.39234e-15 1.23022e-14 9.04723e-15 
85 4.93465e-15 1.65679e-14 3.95888e-15 
89 9.75678e-15 3.21269e-14 -6.90293e-15 
93 3.31046e-15 1.15779e-14 -8.63212e-15 
97 -1.45922e-16 6.05516e-15 3.22395e-15 
101 -1.0175e-15 9.56121e-15 1.99653e-15 
105 -1.35877e-15 9.44799e-15 -2.3322e-15 
109 -1.9389e-15 8.59316e-15 -5.0815e-15 
113 -2.71424e-15 5.80203e-15 3.73115e-15 
117 -1.59734e-15 3.57659e-15 1.32226e-16 
121 -1.78831e-15 3.07519e-15 -9.71296e-16 
125 -1.48091e-15 3.54226e-15 -2.16792e-15 
129 8.57952e-15 9.35409e-15 1.34305e-14 
133 1.20805e-14 4.40644e-15 1.78792e-14 
137 1.26735e-14 -3.40107e-15 1.42222e-14 
141 1.11032e-14 -8.99669e-15 1.14362e-14 
145 4.11374e-15 1.05627e-14 1.65346e-14 
149 5.67584e-15 3.57735e-15 1.80057e-14 
153 7.53198e-15 -5.59205e-15 2.47469e-14 
157 4.86373e-15 -1.05163e-14 1.47158e-14 
161 -1.26373e-15 4.58464e-15 7.73749e-15 
165 -2.96648e-15 3.88877e-15 1.59392e-14 
169 -2.43867e-15 -3.53533e-15 1.43486e-14 
173 -1.0244e-15 -4.35453e-15 5.8685e-15 
177 -2.46477e-15 3.77488e-15 6.45471e-15 
181 -2.14404e-15 6.85932e-16 3.85823e-15 
185 -1.73315e-15 -3.1688e-16 2.11928e-15 
189 -9.28418e-16 -7.32343e-16 1.81438e-15 
2 2.09712e-14 1.66279e-14 1.28282e-14 
6 2.58807e-14 1.86955e-14 5.94808e-15 
10 3.14259e-14 1.93417e-14 -6.28757e-15 
14 3.81494e-14 2.24888e-14 -1.98236e-14 
18 2.83896e-14 7.24655e-15 1.86992e-14 
22 4.58588e-14 1.0366e-14 9.97516e-15 
26 4.85779e-14 8.42064e-15 -8.71792e-15 
30 2.82657e-14 5.48558e-15 -1.69705e-14 
34 2.45688e-14 -5.94662e-15 1.69701e-14 
38 4.92753e-14 -1.14516e-14 1.07843e-14 
42 5.64029e-14 -1.0527e-14 -1.09957e-14 
46 3.15329e-14 -4.94422e-15 -2.13449e-14 
50 1.61385e-14 -1.33076e-14 1.16952e-14 
54 2.5015e-14 -1.70384e-14 5.64917e-15 
58 3.32682e-14 -1.96406e-14 -7.67999e-15 
62 2.67982e-14 -1.59903e-14 -2.00066e-14 
66 1.17263e-14 1.52734e-14 9.10774e-15 
70 1.45145e-14 1.84392e-14 3.21621e-15 
74 1.15177e-14 1.43458e-14 -2.82772e-15 
78 2.01894e-14 3.00375e-14 -1.7038e-14 
82 4.51243e-15 1.26254e-14 8.38612e-15 
86 6.73582e-15 2.14056e-14 4.46856e-15 
90 3.14495e-15 1.67514e-14 -4.47191e-15 
94 3.74155e-15 1.30515e-14 -7.42481e-15 
98 5.59385e-17 3.84842e-15 2.4876e-15 
102 -1.83127e-15 1.35168e-14 2.31737e-15 
106 -4.27417e-16 8.89449e-15 -2.20482e-15 
110 -5.57489e-16 6.05792e-15 -3.88912e-15 
114 -1.52856e-15 2.5793e-15 2.49567e-15 
118 -1.91442e-15 2.60298e-15 3.27381e-16 
122 -1.83539e-15 3.10259e-15 -4.39471e-16 
126 -1.26608e-15 2.12452e-15 -1.569e-15 
130 1.15017e-14 9.34884e-15 1.35813e-14 
134 1.22771e-14 2.06234e-15 1.53987e-14 
138 1.37925e-14 -3.20643e-15 1.70047e-14 
142 1.85251e-14 -1.81392e-14 2.88395e-14 
146 4.5222e-15 7.96524e-15 1.42293e-14 
150 6.22845e-15 4.96284e-15 2.08329e-14 
154 5.81011e-15 -5.23137e-15 2.09697e-14 
158 3.94644e-15 -7.83248e-15 1.29436e-14 
162 -7.29092e-16 5.83616e-15 7.01741e-15 
166 -2.19105e-15 2.83211e-15 1.04042e-14 
170 -1.60669e-15 -2.77241e-15 1.18782e-14 
174 -8.18532e-16 -3.46058e-15 5.09388e-15 
178 -8.31623e-16 1.24302e-15 1.88757e-15 
182 -8.14946e-16 5.34994e-16 1.82159e-15 
186 -2.40797e-15 -9.67027e-16 4.68348e-15 
190 -1.30771e-15 -2.38565e-15 2.91716e-15 
3 -1.09451e-15 9.62404e-16 1.07391e-15 
7 -3.15852e-16 1.49028e-16 1.22885e-16 
11 -2.60001e-16 2.70376e-16 -2.43876e-17 
15 -7.23066e-16 8.43925e-16 -2.9063e-16 
19 -6.72255e-16 8.97663e-17 6.33696e-16 
23 -1.76788e-16 -8.05739e-17 6.93645e-17 
27 -8.46231e-16 1.505e-16 -5.38875e-16 
31 -3.21677e-16 1.43431e-16 -9.18285e-17 
35 -9.55725e-16 -7.54377e-17 4.7336e-16 
39 0 0 0 
43 -1.64468e-16 -4.44324e-19 -1.39161e-16 
47 -9.2338e-16 -5.0279e-16 -7.64955e-16 
51 -1.99673e-15 -1.27542e-15 2.096e-15 
55 -3.96638e-16 -3.41219e-16 -6.358e-17 
59 -8.35094e-16 -5.7782e-16 -3.32758e-16 
63 -1.03624e-15 -1.05393e-15 -5.94947e-16 
67 1.4261e-14 -1.94872e-14 1.38528e-14 
71 1.15858e-14 -1.78857e-14 4.1798e-15 
75 1.01298e-14 -1.40069e-14 -3.57689e-15 
79 1.31104e-14 -1.35847e-14 -1.09391e-14 
83 4.18589e-15 -1.34347e-14 8.45635e-15 
87 6.6988e-15 -2.29678e-14 5.26118e-15 
91 7.94742e-15 -2.63842e-14 -5.60559e-15 
95 3.34528e-15 -1.22123e-14 -9.26086e-15 
99 -8.67506e-16 -6.50357e-15 4.97408e-15 
103 -2.20278e-15 -1.3208e-14 2.7969e-15 
107 -1.10522e-15 -8.77173e-15 -1.60365e-15 
111 -1.26394e-15 -5.80272e-15 -3.19355e-15 
115 -2.44634e-15 -7.02139e-15 3.44599e-15 
119 -1.77769e-15 -5.06593e-15 1.12277e-15 
123 -1.56645e-15 -3.47468e-15 -4.89485e-16 
127 -1.553e-15 -2.795e-15 -1.82087e-15 
131 1.44693e-14 1.38738e-14 -1.85598e-14 
135 1.482e-14 5.48301e-15 -2.01644e-14 
139 1.46676e-14 -4.46182e-15 -2.10511e-14 
143 9.56035e-15 -9.88249e-15 -1.20972e-14 
147 2.5954e-15 7.36256e-15 -1.13903e-14 
151 6.95e-15 6.82015e-15 -2.91146e-14 
155 5.2013e-15 -3.77254e-15 -1.94737e-14 
159 4.23847e-15 -7.93292e-15 -1.25149e-14 
163 -8.25088e-16 5.10064e-15 -7.04094e-15 
167 -1.1412e-15 3.21147e-15 -1.1506e-14 
171 -6.43697e-16 -1.66439e-15 -7.34569e-15 
175 -1.30664e-15 -5.39367e-15 -7.40984e-15 
179 -3.87175e-15 4.45559e-15 -8.40255e-15 
183 -1.14566e-15 1.29107e-15 -2.96678e-15 
187 -1.11869e-15 -3.03995e-16 -2.2491e-15 
191 -2.04167e-15 -1.93453e-15 -2.94463e-15 
4 -1.95123e-15 1.58509e-15 8.28774e-16 
8 -6.17102e-16 7.73806e-16 3.4269e-16 
12 -7.9557e-16 7.62799e-16 -8.45402e-17 
16 -1.13206e-15 1.05526e-15 -7.24086e-16 
20 -7.57471e-16 1.46822e-16 4.17638e-16 
24 -1.14349e-16 1.4255e-16 -3.37946e-17 
28 0 0 0 
32 -1.83984e-15 6.28635e-16 -1.10964e-15 
36 -6.63363e-17 -5.62195e-17 3.86882e-16 
40 -3.48893e-17 -1.21496e-16 1.71244e-16 
44 0 0 0 
48 -7.96222e-16 -4.80247e-16 -6.77565e-16 
52 -1.27548e-15 -8.6233e-16 8.50553e-16 
56 -2.65137e-16 -3.16713e-16 6.68419e-17 
60 -1.63972e-15 -9.01961e-16 -2.8384e-16 
64 -1.24203e-15 -1.01491e-15 -9.85387e-16 
68 1.27173e-14 -1.56831e-14 9.46941e-15 
72 1.16627e-14 -1.40126e-14 2.38728e-15 
76 1.23239e-14 -1.86373e-14 -2.26737e-15 
80 1.75802e-14 -2.70061e-14 -1.54455e-14 
84 3.59608e-15 -1.44671e-14 8.88132e-15 
88 6.71312e-15 -2.1499e-14 4.24188e-15 
92 5.59424e-15 -1.71649e-14 -3.73975e-15 
96 3.90301e-15 -1.46128e-14 -9.37605e-15 
100 -1.643e-15 -8.70239e-15 7.29347e-15 
104 -1.80556e-15 -1.05116e-14 3.3296e-15 
108 -1.13135e-15 -1.25016e-14 -3.86156e-15 
112 -3.24034e-16 -4.13593e-15 -3.53096e-15 
116 -1.32481e-15 -1.87157e-15 1.21846e-15 
120 -7.94597e-16 -1.62404e-15 4.10535e-16 
124 -2.77951e-15 -5.32741e-15 -1.10843e-15 
128 -1.01949e-15 -2.29221e-15 -2.24312e-15 
132 1.2356e-14 1.0737e-14 -1.7325e-14 
136 1.47173e-14 3.59413e-15 -1.89955e-14 
140 1.1125e-14 -2.91741e-15 -1.74155e-14 
144 1.19252e-14 -1.07212e-14 -1.92579e-14 
148 3.18405e-15 8.43416e-15 -1.25143e-14 
152 5.67536e-15 4.75178e-15 -2.09959e-14 
156 5.44946e-15 -3.72684e-15 -2.01237e-14 
160 2.07027e-15 -6.25854e-15 -1.01569e-14 
164 4.21335e-17 3.41734e-15 -4.78259e-15 
168 -1.4025e-15 2.3739e-15 -9.83488e-15 
172 -1.12106e-15 -2.2056e-15 -7.79905e-15 
176 -6.1897e-16 -3.87501e-15 -5.74262e-15 
180 -1.5048e-15 1.64649e-15 -1.7021e-15 
184 -5.44179e-16 5.23945e-16 -1.80415e-15 
188 -2.54761e-15 -1.82606e-15 -5.12563e-15 
192 -1.94874e-15 -2.8361e-15 -3.10834e-15 
