ITEM: TIMESTEP
25000
ITEM: NUMBER OF SURFS
192
ITEM: BOX BOUNDS oo rr rr
0 5e-06
0 5e-06
0 5e-06
ITEM: SURFS id f_ID_drag_fix[1] f_ID_drag_fix[2] f_ID_drag_fix[3] 
1 0 0 0 
5 0 0 0 
9 0 0 0 
13 0 0 0 
17 0 0 0 
21 0 0 0 
25 0 0 0 
29 0 0 0 
33 0 0 0 
37 0 0 0 
41 0 0 0 
45 0 0 0 
49 0 0 0 
53 0 0 0 
57 0 0 0 
61 0 0 0 
65 0 0 0 
69 0 0 0 
73 0 0 0 
77 0 0 0 
81 0 0 0 
85 0 0 0 
89 0 0 0 
93 0 0 0 
97 0 0 0 
101 0 0 0 
105 0 0 0 
109 0 0 0 
113 0 0 0 
117 0 0 0 
121 0 0 0 
125 0 0 0 
129 0 0 0 
133 0 0 0 
137 0 0 0 
141 0 0 0 
145 0 0 0 
149 0 0 0 
153 0 0 0 
157 0 0 0 
161 0 0 0 
165 0 0 0 
169 0 0 0 
173 0 0 0 
177 0 0 0 
181 0 0 0 
185 0 0 0 
189 0 0 0 
2 0 0 0 
6 0 0 0 
10 0 0 0 
14 0 0 0 
18 0 0 0 
22 0 0 0 
26 0 0 0 
30 0 0 0 
34 0 0 0 
38 0 0 0 
42 0 0 0 
46 0 0 0 
50 0 0 0 
54 0 0 0 
58 0 0 0 
62 0 0 0 
66 0 0 0 
70 0 0 0 
74 0 0 0 
78 0 0 0 
82 0 0 0 
86 0 0 0 
90 0 0 0 
94 0 0 0 
98 0 0 0 
102 0 0 0 
106 0 0 0 
110 0 0 0 
114 0 0 0 
118 0 0 0 
122 0 0 0 
126 0 0 0 
130 0 0 0 
134 0 0 0 
138 0 0 0 
142 0 0 0 
146 0 0 0 
150 0 0 0 
154 0 0 0 
158 0 0 0 
162 0 0 0 
166 0 0 0 
170 0 0 0 
174 0 0 0 
178 0 0 0 
182 0 0 0 
186 0 0 0 
190 0 0 0 
3 0 0 0 
7 0 0 0 
11 0 0 0 
15 0 0 0 
19 0 0 0 
23 0 0 0 
27 0 0 0 
31 0 0 0 
35 0 0 0 
39 0 0 0 
43 0 0 0 
47 0 0 0 
51 0 0 0 
55 0 0 0 
59 0 0 0 
63 0 0 0 
67 0 0 0 
71 0 0 0 
75 0 0 0 
79 0 0 0 
83 0 0 0 
87 0 0 0 
91 0 0 0 
95 0 0 0 
99 0 0 0 
103 0 0 0 
107 0 0 0 
111 0 0 0 
115 0 0 0 
119 0 0 0 
123 0 0 0 
127 0 0 0 
131 0 0 0 
135 0 0 0 
139 0 0 0 
143 0 0 0 
147 0 0 0 
151 0 0 0 
155 0 0 0 
159 0 0 0 
163 0 0 0 
167 0 0 0 
171 0 0 0 
175 0 0 0 
179 0 0 0 
183 0 0 0 
187 0 0 0 
191 0 0 0 
4 0 0 0 
8 0 0 0 
12 0 0 0 
16 0 0 0 
20 0 0 0 
24 0 0 0 
28 0 0 0 
32 0 0 0 
36 0 0 0 
40 0 0 0 
44 0 0 0 
48 0 0 0 
52 0 0 0 
56 0 0 0 
60 0 0 0 
64 0 0 0 
68 0 0 0 
72 0 0 0 
76 0 0 0 
80 0 0 0 
84 0 0 0 
88 0 0 0 
92 0 0 0 
96 0 0 0 
100 0 0 0 
104 0 0 0 
108 0 0 0 
112 0 0 0 
116 0 0 0 
120 0 0 0 
124 0 0 0 
128 0 0 0 
132 0 0 0 
136 0 0 0 
140 0 0 0 
144 0 0 0 
148 0 0 0 
152 0 0 0 
156 0 0 0 
160 0 0 0 
164 0 0 0 
168 0 0 0 
172 0 0 0 
176 0 0 0 
180 0 0 0 
184 0 0 0 
188 0 0 0 
192 0 0 0 
ITEM: TIMESTEP
50000
ITEM: NUMBER OF SURFS
192
ITEM: BOX BOUNDS oo rr rr
0 5e-06
0 5e-06
0 5e-06
ITEM: SURFS id f_ID_drag_fix[1] f_ID_drag_fix[2] f_ID_drag_fix[3] 
1 1.52073e-14 1.05305e-14 1.13186e-14 
5 3.1057e-14 1.9294e-14 7.29334e-15 
9 2.76708e-14 1.83821e-14 -3.83409e-15 
13 9.19535e-15 7.02134e-15 -6.88986e-15 
17 2.31665e-14 5.2757e-15 1.72841e-14 
21 5.2018e-14 1.09177e-14 7.55502e-15 
25 4.43921e-14 1.01211e-14 -8.62768e-15 
29 2.67076e-14 7.05447e-15 -1.91271e-14 
33 3.51412e-14 -8.70338e-15 2.12373e-14 
37 3.20993e-14 -6.47985e-15 5.0207e-15 
41 5.50722e-14 -1.07627e-14 -1.254e-14 
45 3.70925e-14 -1.0023e-14 -2.47916e-14 
49 3.65595e-14 -1.9589e-14 2.03021e-14 
53 2.61697e-14 -1.11529e-14 5.89249e-15 
57 1.59762e-14 -9.81243e-15 -3.09327e-15 
61 2.07273e-14 -1.59303e-14 -1.06045e-14 
65 8.71608e-15 1.68384e-14 1.14198e-14 
69 1.13664e-14 1.84032e-14 3.53328e-15 
73 1.01276e-14 1.48209e-14 -2.78851e-15 
77 8.52666e-15 1.05667e-14 -7.75147e-15 
81 1.47539e-15 1.08145e-14 7.70629e-15 
85 3.92866e-15 1.39087e-14 5.30975e-15 
89 1.05232e-14 4.35732e-14 -8.33453e-15 
93 1.8968e-15 5.58694e-15 -5.04335e-15 
97 -1.36577e-15 1.0886e-14 5.747e-15 
101 -2.17974e-15 1.27747e-14 2.46493e-15 
105 -5.28559e-15 2.21535e-14 -4.92577e-15 
109 -7.99166e-16 8.02243e-15 -4.2576e-15 
113 -2.79735e-15 4.08133e-15 1.10983e-15 
117 -4.75503e-16 2.63975e-15 7.36698e-16 
121 -2.65033e-15 3.25005e-15 3.45412e-16 
125 -9.69211e-16 2.74441e-15 -2.0289e-15 
129 1.22804e-14 1.24407e-14 1.62644e-14 
133 1.36563e-14 5.73579e-15 1.85418e-14 
137 1.4707e-14 -3.33138e-15 1.89051e-14 
141 1.56022e-14 -1.67405e-14 2.09736e-14 
145 3.5236e-15 1.06406e-14 1.38422e-14 
149 6.06564e-15 6.54807e-15 2.60388e-14 
153 7.54267e-15 -4.33754e-15 2.47112e-14 
157 1.09989e-14 -1.3342e-14 2.09663e-14 
161 8.37909e-17 5.19675e-15 1.23785e-14 
165 -5.64398e-16 2.06305e-15 1.25698e-14 
169 4.21179e-16 -2.96618e-15 1.16886e-14 
173 -1.00455e-15 -2.0797e-15 6.57507e-15 
177 -2.67538e-15 3.22621e-15 5.63104e-15 
181 -1.54691e-15 1.79507e-16 3.02411e-15 
185 -9.66927e-16 -7.74686e-16 1.56112e-15 
189 -9.62188e-16 -4.94697e-16 8.12113e-16 
2 2.21047e-14 1.59025e-14 1.27915e-14 
6 2.00043e-14 1.49722e-14 4.0127e-15 
10 3.15477e-14 2.03711e-14 -4.67599e-15 
14 3.78426e-14 1.68895e-14 -1.71105e-14 
18 2.64657e-14 4.25091e-15 1.65183e-14 
22 4.69614e-14 7.72088e-15 8.02059e-15 
26 4.2484e-14 7.55709e-15 -9.89706e-15 
30 3.40342e-14 4.71209e-15 -1.79439e-14 
34 1.94873e-14 -6.44441e-15 1.20644e-14 
38 6.13465e-14 -1.61944e-14 1.18932e-14 
42 6.54954e-14 -1.38671e-14 -1.24721e-14 
46 1.64092e-14 -2.02736e-15 -1.50959e-14 
50 1.89158e-14 -1.54921e-14 1.84898e-14 
54 2.37751e-14 -1.62542e-14 4.05741e-15 
58 1.67763e-14 -8.87503e-15 -3.27505e-15 
62 1.99495e-14 -1.07059e-14 -1.36446e-14 
66 1.63525e-14 1.87376e-14 1.17005e-14 
70 1.54715e-14 1.69451e-14 3.7823e-15 
74 2.18322e-14 3.88697e-14 -8.61244e-15 
78 2.11945e-14 3.47481e-14 -1.86286e-14 
82 2.85713e-15 7.72744e-15 6.98348e-15 
86 3.34681e-15 1.09319e-14 2.57574e-15 
90 3.69613e-15 1.59171e-14 -1.57616e-15 
94 4.33471e-15 1.04053e-14 -6.32103e-15 
98 -8.6481e-16 1.2699e-14 9.83412e-15 
102 -9.47057e-16 1.56023e-14 3.7929e-15 
106 -2.20932e-15 1.42819e-14 -3.06965e-15 
110 -7.73076e-16 3.53747e-15 -3.31725e-15 
114 -3.25718e-15 3.24693e-15 3.29513e-15 
118 0 0 0 
122 -7.55429e-16 1.87268e-15 -2.33618e-16 
126 -3.78043e-15 4.7352e-15 -3.86373e-15 
130 1.16985e-14 1.1115e-14 1.48485e-14 
134 5.91584e-15 2.44916e-15 7.15946e-15 
138 2.30919e-14 -5.70804e-15 3.41611e-14 
142 2.6146e-14 -2.25098e-14 3.48783e-14 
146 5.64933e-15 1.12833e-14 1.83994e-14 
150 7.33458e-15 6.56951e-15 2.95306e-14 
154 4.63429e-15 -4.32714e-15 1.89217e-14 
158 3.9066e-15 -1.37815e-14 2.12299e-14 
162 -1.36909e-15 1.88782e-15 5.9717e-15 
166 -8.0757e-16 1.61579e-15 1.20042e-14 
170 -1.45006e-15 -1.47745e-15 1.73886e-14 
174 1.29349e-15 -4.08038e-15 3.71493e-15 
178 -1.45192e-15 2.51097e-15 2.61503e-15 
182 -3.16746e-15 2.43563e-15 7.58904e-15 
186 -1.39924e-15 -2.47089e-17 1.71806e-15 
190 -2.11186e-15 -1.96411e-15 3.63592e-15 
3 0 0 0 
7 -1.40802e-15 6.61391e-16 -7.06167e-16 
11 -1.26886e-15 7.71573e-16 -3.8717e-16 
15 -7.7504e-16 1.16922e-15 -1.47821e-15 
19 0 0 0 
23 0 0 0 
27 0 0 0 
31 -1.66472e-15 3.97075e-17 -6.89194e-16 
35 0 0 0 
39 0 0 0 
43 0 0 0 
47 1.06993e-16 -2.19672e-17 -1.12623e-15 
51 0 0 0 
55 -2.62975e-15 -1.67913e-15 6.78524e-16 
59 0 0 0 
63 -1.2929e-15 -1.54863e-15 -5.91675e-16 
67 9.72334e-15 -1.19526e-14 1.01417e-14 
71 9.96386e-15 -1.4442e-14 5.66039e-15 
75 6.39311e-15 -8.75193e-15 -3.91714e-15 
79 1.27773e-14 -1.60849e-14 -1.55544e-14 
83 1.80138e-15 -1.05317e-14 7.86792e-15 
87 7.79514e-15 -2.44619e-14 8.47401e-15 
91 1.37787e-14 -3.45725e-14 -7.49188e-15 
95 2.90837e-15 -1.16719e-14 -1.11777e-14 
99 -1.06445e-15 -1.63787e-14 8.72431e-15 
103 -1.11039e-15 -1.05605e-14 3.16229e-15 
107 -1.17933e-15 -1.04915e-14 -4.05354e-15 
111 -1.21048e-15 -2.81183e-15 -1.36072e-15 
115 -1.78732e-15 -6.40772e-15 1.4714e-15 
119 -2.04067e-15 -4.09211e-15 1.42788e-15 
123 0 0 0 
127 -3.85176e-15 -4.86553e-15 -4.0822e-15 
131 6.38494e-15 9.54213e-15 -1.38378e-14 
135 3.30451e-15 1.92861e-16 -4.38336e-15 
139 8.76737e-15 -8.08214e-16 -9.59533e-15 
143 1.70227e-14 -1.47602e-14 -1.55509e-14 
147 9.90473e-16 4.72922e-15 -7.04386e-15 
151 5.20132e-15 5.36548e-15 -1.72688e-14 
155 4.74247e-15 -1.82718e-15 -1.60849e-14 
159 6.83271e-15 -1.9983e-14 -2.72818e-14 
163 -1.20473e-16 3.88264e-15 -6.4868e-15 
167 -1.14146e-16 2.84123e-15 -9.72383e-15 
171 -2.32469e-16 -2.00049e-15 -6.68055e-15 
175 -6.38087e-16 -2.07766e-15 -2.38908e-15 
179 -1.94938e-15 4.35564e-15 -9.36473e-15 
183 -1.64492e-15 -1.79069e-16 -4.07114e-15 
187 -6.37566e-16 -3.52367e-16 -2.45991e-15 
191 -1.31195e-15 -8.20081e-16 -1.63272e-15 
4 -1.68308e-15 2.54443e-15 2.14118e-15 
8 0 0 0 
12 -3.55989e-15 2.10387e-15 1.00607e-16 
16 -3.86274e-15 2.88042e-15 -6.77267e-16 
20 -2.18476e-15 1.07578e-17 1.53985e-15 
24 0 0 0 
28 0 0 0 
32 -8.23942e-16 2.05e-16 -1.18179e-15 
36 -7.22041e-16 -1.76724e-16 9.03961e-16 
40 -1.60723e-16 -6.12595e-16 2.83139e-16 
44 0 0 0 
48 0 0 0 
52 -1.33707e-16 -7.82727e-16 1.38255e-17 
56 0 0 0 
60 -1.05788e-15 -1.39947e-15 -5.67863e-16 
64 -2.7208e-15 -1.25265e-15 -2.52109e-15 
68 1.17749e-14 -1.78234e-14 8.76375e-15 
72 1.08614e-14 -1.62033e-14 1.77552e-15 
76 1.1352e-14 -1.78333e-14 -1.90083e-15 
80 1.6054e-14 -2.22246e-14 -1.23936e-14 
84 1.01025e-15 -3.97922e-15 2.79738e-15 
88 2.01615e-15 -1.35009e-14 4.25203e-15 
92 6.91582e-15 -2.67865e-14 -4.06375e-15 
96 5.02818e-15 -1.46776e-14 -6.34665e-15 
100 -1.79959e-15 -1.00138e-14 6.97813e-15 
104 5.88129e-16 -1.14039e-14 3.11938e-15 
108 2.28892e-16 -7.26546e-15 -1.27161e-15 
112 -1.56835e-15 -7.62148e-15 -3.5394e-15 
116 -1.03646e-15 -1.50639e-15 1.2389e-15 
120 0 0 0 
124 -1.55703e-15 -3.27186e-15 -1.29577e-15 
128 -1.18588e-15 -2.3698e-15 8.98606e-17 
132 1.23222e-14 6.7979e-15 -1.35783e-14 
136 2.53949e-14 5.7529e-15 -3.03582e-14 
140 1.36908e-14 -4.08816e-15 -1.58577e-14 
144 1.5541e-14 -1.68145e-14 -2.57074e-14 
148 8.97671e-16 3.3909e-15 -6.62272e-15 
152 8.67049e-15 5.13129e-15 -2.74069e-14 
156 5.49608e-15 -2.18405e-15 -1.51151e-14 
160 2.79595e-15 -3.65844e-15 -6.88139e-15 
164 -1.80484e-15 3.09292e-15 -5.49715e-15 
168 -3.13415e-15 7.2079e-15 -2.34244e-14 
172 -1.62666e-15 -1.56368e-15 -7.34116e-15 
176 -3.60623e-16 -6.44961e-15 -9.44956e-15 
180 -3.33845e-15 4.34319e-15 -5.25577e-15 
184 -1.81721e-15 2.56977e-15 -3.79913e-15 
188 -4.28669e-16 -6.13389e-16 -1.13694e-15 
192 -1.06159e-15 -1.98168e-15 -1.24032e-15 
