ITEM: TIMESTEP
100000
ITEM: NUMBER OF SURFS
192
ITEM: BOX BOUNDS oo rr rr
0 5e-06
0 5e-06
0 5e-06
ITEM: SURFS id f_ID_drag_fix[1] f_ID_drag_fix[2] f_ID_drag_fix[3] 
1 0 0 0 
5 0 0 0 
9 0 0 0 
13 0 0 0 
17 0 0 0 
21 0 0 0 
25 0 0 0 
29 0 0 0 
33 0 0 0 
37 0 0 0 
41 0 0 0 
45 0 0 0 
49 0 0 0 
53 0 0 0 
57 0 0 0 
61 0 0 0 
65 0 0 0 
69 0 0 0 
73 0 0 0 
77 0 0 0 
81 0 0 0 
85 0 0 0 
89 0 0 0 
93 0 0 0 
97 0 0 0 
101 0 0 0 
105 0 0 0 
109 0 0 0 
113 0 0 0 
117 0 0 0 
121 0 0 0 
125 0 0 0 
129 0 0 0 
133 0 0 0 
137 0 0 0 
141 0 0 0 
145 0 0 0 
149 0 0 0 
153 0 0 0 
157 0 0 0 
161 0 0 0 
165 0 0 0 
169 0 0 0 
173 0 0 0 
177 0 0 0 
181 0 0 0 
185 0 0 0 
189 0 0 0 
2 0 0 0 
6 0 0 0 
10 0 0 0 
14 0 0 0 
18 0 0 0 
22 0 0 0 
26 0 0 0 
30 0 0 0 
34 0 0 0 
38 0 0 0 
42 0 0 0 
46 0 0 0 
50 0 0 0 
54 0 0 0 
58 0 0 0 
62 0 0 0 
66 0 0 0 
70 0 0 0 
74 0 0 0 
78 0 0 0 
82 0 0 0 
86 0 0 0 
90 0 0 0 
94 0 0 0 
98 0 0 0 
102 0 0 0 
106 0 0 0 
110 0 0 0 
114 0 0 0 
118 0 0 0 
122 0 0 0 
126 0 0 0 
130 0 0 0 
134 0 0 0 
138 0 0 0 
142 0 0 0 
146 0 0 0 
150 0 0 0 
154 0 0 0 
158 0 0 0 
162 0 0 0 
166 0 0 0 
170 0 0 0 
174 0 0 0 
178 0 0 0 
182 0 0 0 
186 0 0 0 
190 0 0 0 
3 0 0 0 
7 0 0 0 
11 0 0 0 
15 0 0 0 
19 0 0 0 
23 0 0 0 
27 0 0 0 
31 0 0 0 
35 0 0 0 
39 0 0 0 
43 0 0 0 
47 0 0 0 
51 0 0 0 
55 0 0 0 
59 0 0 0 
63 0 0 0 
67 0 0 0 
71 0 0 0 
75 0 0 0 
79 0 0 0 
83 0 0 0 
87 0 0 0 
91 0 0 0 
95 0 0 0 
99 0 0 0 
103 0 0 0 
107 0 0 0 
111 0 0 0 
115 0 0 0 
119 0 0 0 
123 0 0 0 
127 0 0 0 
131 0 0 0 
135 0 0 0 
139 0 0 0 
143 0 0 0 
147 0 0 0 
151 0 0 0 
155 0 0 0 
159 0 0 0 
163 0 0 0 
167 0 0 0 
171 0 0 0 
175 0 0 0 
179 0 0 0 
183 0 0 0 
187 0 0 0 
191 0 0 0 
4 0 0 0 
8 0 0 0 
12 0 0 0 
16 0 0 0 
20 0 0 0 
24 0 0 0 
28 0 0 0 
32 0 0 0 
36 0 0 0 
40 0 0 0 
44 0 0 0 
48 0 0 0 
52 0 0 0 
56 0 0 0 
60 0 0 0 
64 0 0 0 
68 0 0 0 
72 0 0 0 
76 0 0 0 
80 0 0 0 
84 0 0 0 
88 0 0 0 
92 0 0 0 
96 0 0 0 
100 0 0 0 
104 0 0 0 
108 0 0 0 
112 0 0 0 
116 0 0 0 
120 0 0 0 
124 0 0 0 
128 0 0 0 
132 0 0 0 
136 0 0 0 
140 0 0 0 
144 0 0 0 
148 0 0 0 
152 0 0 0 
156 0 0 0 
160 0 0 0 
164 0 0 0 
168 0 0 0 
172 0 0 0 
176 0 0 0 
180 0 0 0 
184 0 0 0 
188 0 0 0 
192 0 0 0 
ITEM: TIMESTEP
200000
ITEM: NUMBER OF SURFS
192
ITEM: BOX BOUNDS oo rr rr
0 5e-06
0 5e-06
0 5e-06
ITEM: SURFS id f_ID_drag_fix[1] f_ID_drag_fix[2] f_ID_drag_fix[3] 
1 2.12505e-14 2.01443e-14 1.8142e-14 
5 3.76156e-14 2.04027e-14 1.04444e-14 
9 1.82812e-14 1.67719e-14 -4.91022e-16 
13 2.18056e-14 1.33473e-14 -1.66987e-14 
17 1.41197e-14 9.82461e-16 6.49825e-15 
21 4.52133e-14 8.16767e-15 1.32233e-14 
25 7.04063e-14 1.75219e-14 -2.12825e-14 
29 5.68283e-14 1.73931e-14 -3.71925e-14 
33 2.37306e-14 -5.09421e-15 1.45668e-14 
37 5.07274e-14 -1.24913e-14 1.45582e-14 
41 6.13553e-14 -1.50798e-14 -7.70551e-15 
45 3.02908e-14 -9.97911e-15 -1.75751e-14 
49 2.88256e-14 -1.30148e-14 2.04516e-14 
53 2.0441e-15 -3.5304e-15 -1.58384e-15 
57 2.17725e-14 -1.63993e-14 7.07034e-16 
61 2.05777e-14 -1.57175e-14 -1.43833e-14 
65 1.03831e-14 1.6386e-14 1.15923e-14 
69 7.10154e-15 1.16041e-14 4.44038e-15 
73 1.10209e-14 1.14106e-14 -4.39372e-15 
77 1.85118e-14 1.73298e-14 -1.8513e-14 
81 1.87828e-15 1.11293e-14 1.02544e-14 
85 9.8446e-15 3.41596e-14 9.42393e-15 
89 3.59244e-15 1.99034e-14 -6.19213e-15 
93 2.15168e-15 1.36831e-14 -6.58887e-15 
97 2.16668e-15 8.88452e-15 4.02652e-15 
101 -4.48821e-15 1.96713e-14 3.38332e-15 
105 -4.59538e-15 1.10915e-14 -3.88907e-15 
109 -1.89978e-15 1.1739e-14 -9.34608e-15 
113 -1.19279e-15 3.45521e-15 3.33113e-15 
117 0 0 0 
121 -2.66685e-15 5.57831e-15 -1.7163e-15 
125 0 0 0 
129 8.28055e-15 9.04639e-15 1.50491e-14 
133 9.2895e-15 3.23009e-15 1.83626e-14 
137 8.53513e-15 -4.86458e-15 1.09647e-14 
141 9.5417e-15 -5.55007e-15 1.05514e-14 
145 6.42467e-15 6.31136e-15 1.07446e-14 
149 5.071e-15 -2.93555e-17 2.72345e-14 
153 1.10137e-14 -7.38281e-15 2.58102e-14 
157 2.46353e-15 -3.34329e-15 3.39959e-15 
161 -9.93832e-16 6.6416e-15 7.81418e-15 
165 7.83827e-16 3.16023e-15 1.4538e-14 
169 -3.31445e-15 -2.05128e-15 4.85408e-15 
173 -1.43946e-15 -3.05814e-15 6.21938e-15 
177 -7.15366e-15 8.3281e-15 1.25155e-14 
181 0 0 0 
185 -5.17892e-15 -2.2999e-16 8.38977e-15 
189 4.15044e-16 -8.23419e-16 5.47583e-15 
2 2.60771e-14 1.60594e-14 1.05954e-14 
6 2.38252e-14 1.77294e-14 2.14273e-15 
10 2.32053e-14 1.03055e-14 -6.46602e-15 
14 7.5057e-14 3.79786e-14 -4.33247e-14 
18 1.55785e-14 -8.81431e-17 1.13452e-14 
22 5.26594e-14 1.06248e-14 1.20083e-14 
26 4.03405e-14 1.52929e-14 -5.21372e-15 
30 2.34559e-14 7.30389e-15 -1.19845e-14 
34 3.4294e-14 -7.97181e-15 2.33498e-14 
38 3.59762e-14 -7.03807e-15 1.43436e-14 
42 5.90765e-14 -1.20539e-14 -1.44352e-14 
46 4.36097e-14 -3.69899e-15 -3.41049e-14 
50 1.75595e-14 -7.63216e-15 1.18613e-14 
54 6.34621e-15 -8.51804e-15 3.93231e-15 
58 2.3789e-14 -1.5557e-14 -7.35839e-15 
62 2.39549e-14 -1.32795e-14 -1.34699e-14 
66 2.23172e-14 1.6905e-14 1.87961e-14 
70 2.57131e-14 3.49997e-14 8.17539e-15 
74 3.99702e-15 7.69391e-15 -1.58701e-15 
78 1.99122e-14 2.1621e-14 -1.18822e-14 
82 3.66425e-15 1.38068e-14 1.21331e-14 
86 6.16087e-15 1.59244e-14 8.65901e-15 
90 1.38173e-15 1.01412e-14 -7.18291e-16 
94 0 0 0 
98 -1.71486e-15 2.91412e-15 1.6226e-15 
102 -1.01655e-15 3.36276e-15 7.49681e-16 
106 -1.37501e-15 2.82739e-15 9.45847e-16 
110 1.11977e-15 8.50815e-15 -4.68146e-15 
114 -1.67378e-15 3.42981e-15 1.23023e-15 
118 -1.51822e-15 2.52245e-15 2.14243e-15 
122 -9.82482e-16 1.09457e-15 -1.42755e-15 
126 0 0 0 
130 0 0 0 
134 3.90505e-14 6.83707e-15 4.52316e-14 
138 8.22636e-15 -2.85917e-15 1.42866e-14 
142 5.77399e-15 -8.22587e-15 1.72453e-14 
146 9.73935e-16 3.76816e-15 9.40867e-15 
150 3.63149e-15 5.9128e-15 1.71189e-14 
154 7.15248e-15 -2.21349e-15 1.58026e-14 
158 1.01807e-15 -3.04628e-15 8.50807e-15 
162 0 0 0 
166 -4.98467e-16 3.61683e-15 1.0385e-14 
170 -4.69659e-15 -7.64403e-15 2.82179e-14 
174 -2.49087e-16 -6.27715e-15 9.26327e-15 
178 0 0 0 
182 9.65219e-16 9.79126e-18 3.41827e-15 
186 2.51332e-16 5.28493e-17 3.59821e-15 
190 0 0 0 
3 0 0 0 
7 0 0 0 
11 0 0 0 
15 0 0 0 
19 -2.38945e-15 1.50997e-15 1.32042e-15 
23 0 0 0 
27 0 0 0 
31 0 0 0 
35 0 0 0 
39 -2.1249e-15 7.19117e-16 -3.90404e-16 
43 0 0 0 
47 -2.91928e-15 -7.01968e-16 -3.04104e-15 
51 0 0 0 
55 0 0 0 
59 0 0 0 
63 0 0 0 
67 1.51832e-14 -2.2639e-14 2.07621e-14 
71 1.02987e-14 -1.22872e-14 3.42681e-15 
75 1.58355e-14 -2.05781e-14 -5.1565e-15 
79 1.08586e-14 -1.36359e-14 -1.11133e-14 
83 3.24646e-15 -2.40724e-14 1.79882e-14 
87 1.93299e-14 -4.54956e-14 1.47735e-14 
91 8.71158e-15 -1.68633e-14 -2.11468e-15 
95 1.68733e-15 -8.52943e-15 -6.4263e-15 
99 -2.80167e-15 -1.49904e-14 9.53509e-15 
103 2.56121e-15 -1.02331e-14 6.66302e-16 
107 -2.40724e-16 -6.3767e-15 -2.959e-15 
111 -2.50666e-15 -1.19105e-14 -9.27206e-15 
115 0 0 0 
119 0 0 0 
123 0 0 0 
127 0 0 0 
131 7.21943e-15 1.17943e-14 -1.30683e-14 
135 8.27754e-15 2.75444e-15 -9.50413e-15 
139 1.60656e-14 -7.62251e-15 -2.5118e-14 
143 8.72684e-15 -5.78675e-15 -1.0106e-14 
147 1.13544e-15 1.33214e-15 -3.61029e-15 
151 3.04684e-16 2.12758e-15 -6.54617e-15 
155 9.30041e-15 -5.80625e-15 -2.41312e-14 
159 5.27685e-16 -5.38609e-15 -5.46416e-15 
163 5.75456e-16 2.7584e-15 -2.78254e-15 
167 -2.91005e-16 4.18177e-15 -2.31656e-14 
171 -4.35921e-15 -3.59647e-15 -1.89287e-14 
175 0 0 0 
179 1.92656e-16 9.11391e-16 -3.51545e-15 
183 0 0 0 
187 0 0 0 
191 -3.90723e-15 -4.56867e-15 -5.74761e-15 
4 0 0 0 
8 -2.16778e-15 3.4749e-15 -2.98954e-16 
12 0 0 0 
16 -4.04646e-15 2.41343e-15 -1.84612e-15 
20 0 0 0 
24 0 0 0 
28 0 0 0 
32 0 0 0 
36 -1.17801e-15 -2.47469e-16 1.03779e-15 
40 0 0 0 
44 0 0 0 
48 -1.92298e-15 -2.10166e-15 -1.51155e-15 
52 0 0 0 
56 0 0 0 
60 0 0 0 
64 -2.75018e-15 8.84089e-16 -2.6664e-15 
68 7.36742e-16 -3.11286e-15 1.68432e-15 
72 1.82835e-14 -1.42059e-14 3.37955e-15 
76 0 0 0 
80 2.59186e-14 -3.62166e-14 -2.16599e-14 
84 1.11719e-15 -4.1007e-15 3.74319e-15 
88 1.31844e-14 -3.76019e-14 4.64635e-15 
92 2.9543e-15 -1.111e-14 -3.37281e-15 
96 6.98543e-15 -2.21334e-14 -8.03131e-15 
100 -3.82113e-15 -6.16516e-15 4.36197e-15 
104 4.81999e-16 -1.39452e-14 4.74582e-15 
108 -1.74114e-16 -7.21194e-15 1.1904e-15 
112 -2.0947e-15 -1.23505e-14 -1.14339e-14 
116 -1.07692e-15 -2.92675e-15 2.39413e-15 
120 -1.15117e-15 -3.54521e-15 -1.31516e-15 
124 0 0 0 
128 -1.32789e-15 -2.823e-15 -1.57885e-15 
132 1.48825e-14 1.38484e-14 -2.19259e-14 
136 1.2732e-14 4.34704e-15 -1.97973e-14 
140 1.00367e-14 -1.86019e-15 -1.01139e-14 
144 1.24314e-14 -1.119e-14 -1.85824e-14 
148 2.50385e-15 2.44233e-15 -6.92118e-15 
152 3.4135e-15 7.48151e-15 -1.79938e-14 
156 1.38599e-15 3.58282e-16 -1.2445e-14 
160 1.00316e-14 -1.491e-14 -2.80863e-14 
164 1.27772e-15 1.72007e-15 -3.18783e-15 
168 -2.81231e-15 2.22872e-15 -8.62026e-15 
172 -3.51736e-15 -4.43848e-15 -9.35955e-15 
176 1.75028e-15 -6.10881e-15 -8.96347e-15 
180 -1.34918e-16 2.09016e-15 -2.12244e-15 
184 0 0 0 
188 -1.68377e-15 -2.86854e-15 -5.15669e-15 
192 -2.46537e-15 -6.1298e-15 -5.57818e-15 
