ITEM: TIMESTEP
200000
ITEM: NUMBER OF SURFS
192
ITEM: BOX BOUNDS oo rr rr
0 5e-06
0 5e-06
0 5e-06
ITEM: SURFS id f_ID_drag_fix[1] f_ID_drag_fix[2] f_ID_drag_fix[3] 
1 0 0 0 
5 0 0 0 
9 0 0 0 
13 0 0 0 
17 0 0 0 
21 0 0 0 
25 0 0 0 
29 0 0 0 
33 0 0 0 
37 0 0 0 
41 0 0 0 
45 0 0 0 
49 0 0 0 
53 0 0 0 
57 0 0 0 
61 0 0 0 
65 0 0 0 
69 0 0 0 
73 0 0 0 
77 0 0 0 
81 0 0 0 
85 0 0 0 
89 0 0 0 
93 0 0 0 
97 0 0 0 
101 0 0 0 
105 0 0 0 
109 0 0 0 
113 0 0 0 
117 0 0 0 
121 0 0 0 
125 0 0 0 
129 0 0 0 
133 0 0 0 
137 0 0 0 
141 0 0 0 
145 0 0 0 
149 0 0 0 
153 0 0 0 
157 0 0 0 
161 0 0 0 
165 0 0 0 
169 0 0 0 
173 0 0 0 
177 0 0 0 
181 0 0 0 
185 0 0 0 
189 0 0 0 
2 0 0 0 
6 0 0 0 
10 0 0 0 
14 0 0 0 
18 0 0 0 
22 0 0 0 
26 0 0 0 
30 0 0 0 
34 0 0 0 
38 0 0 0 
42 0 0 0 
46 0 0 0 
50 0 0 0 
54 0 0 0 
58 0 0 0 
62 0 0 0 
66 0 0 0 
70 0 0 0 
74 0 0 0 
78 0 0 0 
82 0 0 0 
86 0 0 0 
90 0 0 0 
94 0 0 0 
98 0 0 0 
102 0 0 0 
106 0 0 0 
110 0 0 0 
114 0 0 0 
118 0 0 0 
122 0 0 0 
126 0 0 0 
130 0 0 0 
134 0 0 0 
138 0 0 0 
142 0 0 0 
146 0 0 0 
150 0 0 0 
154 0 0 0 
158 0 0 0 
162 0 0 0 
166 0 0 0 
170 0 0 0 
174 0 0 0 
178 0 0 0 
182 0 0 0 
186 0 0 0 
190 0 0 0 
3 0 0 0 
7 0 0 0 
11 0 0 0 
15 0 0 0 
19 0 0 0 
23 0 0 0 
27 0 0 0 
31 0 0 0 
35 0 0 0 
39 0 0 0 
43 0 0 0 
47 0 0 0 
51 0 0 0 
55 0 0 0 
59 0 0 0 
63 0 0 0 
67 0 0 0 
71 0 0 0 
75 0 0 0 
79 0 0 0 
83 0 0 0 
87 0 0 0 
91 0 0 0 
95 0 0 0 
99 0 0 0 
103 0 0 0 
107 0 0 0 
111 0 0 0 
115 0 0 0 
119 0 0 0 
123 0 0 0 
127 0 0 0 
131 0 0 0 
135 0 0 0 
139 0 0 0 
143 0 0 0 
147 0 0 0 
151 0 0 0 
155 0 0 0 
159 0 0 0 
163 0 0 0 
167 0 0 0 
171 0 0 0 
175 0 0 0 
179 0 0 0 
183 0 0 0 
187 0 0 0 
191 0 0 0 
4 0 0 0 
8 0 0 0 
12 0 0 0 
16 0 0 0 
20 0 0 0 
24 0 0 0 
28 0 0 0 
32 0 0 0 
36 0 0 0 
40 0 0 0 
44 0 0 0 
48 0 0 0 
52 0 0 0 
56 0 0 0 
60 0 0 0 
64 0 0 0 
68 0 0 0 
72 0 0 0 
76 0 0 0 
80 0 0 0 
84 0 0 0 
88 0 0 0 
92 0 0 0 
96 0 0 0 
100 0 0 0 
104 0 0 0 
108 0 0 0 
112 0 0 0 
116 0 0 0 
120 0 0 0 
124 0 0 0 
128 0 0 0 
132 0 0 0 
136 0 0 0 
140 0 0 0 
144 0 0 0 
148 0 0 0 
152 0 0 0 
156 0 0 0 
160 0 0 0 
164 0 0 0 
168 0 0 0 
172 0 0 0 
176 0 0 0 
180 0 0 0 
184 0 0 0 
188 0 0 0 
192 0 0 0 
ITEM: TIMESTEP
400000
ITEM: NUMBER OF SURFS
192
ITEM: BOX BOUNDS oo rr rr
0 5e-06
0 5e-06
0 5e-06
ITEM: SURFS id f_ID_drag_fix[1] f_ID_drag_fix[2] f_ID_drag_fix[3] 
1 1.38635e-14 1.1607e-14 1.17952e-14 
5 2.6086e-14 1.4987e-14 8.72053e-15 
9 2.63858e-14 1.64422e-14 -1.98078e-15 
13 1.22193e-14 1.07195e-14 -7.85549e-15 
17 2.28048e-14 5.60717e-15 1.47726e-14 
21 4.27952e-14 5.0001e-15 7.21835e-15 
25 2.34959e-14 1.04157e-14 -8.43031e-15 
29 1.87109e-14 4.37766e-15 -8.01466e-15 
33 4.59962e-14 -1.0936e-14 2.95312e-14 
37 4.00075e-14 -5.54092e-15 9.24645e-15 
41 4.4085e-14 -5.97901e-15 -1.11077e-14 
45 3.57231e-14 -1.24594e-14 -1.92812e-14 
49 4.78696e-14 -2.65352e-14 2.16811e-14 
53 1.74351e-14 -8.24575e-15 3.30132e-15 
57 9.50987e-15 -5.53916e-15 -2.21409e-15 
61 3.64782e-14 -1.83754e-14 -1.98687e-14 
65 1.47235e-14 2.10249e-14 1.68221e-14 
69 1.99603e-14 2.80416e-14 1.10576e-14 
73 1.93881e-14 2.86415e-14 -6.99981e-15 
77 2.17634e-14 2.56824e-14 -1.90311e-14 
81 3.53557e-15 1.50353e-14 7.38e-15 
85 8.26678e-15 3.05662e-14 8.64679e-15 
89 1.61677e-14 3.62029e-14 -1.02927e-14 
93 2.09274e-15 3.01627e-15 -3.02619e-15 
97 7.47781e-17 4.91731e-15 2.73866e-15 
101 2.19353e-15 1.32015e-14 1.00303e-15 
105 -2.50726e-15 8.87573e-15 -2.34417e-15 
109 0 0 0 
113 0 0 0 
117 -2.87905e-15 1.8708e-15 9.9399e-17 
121 -2.63185e-15 5.08516e-15 -3.90714e-15 
125 -2.63056e-16 2.60041e-15 -1.23162e-15 
129 9.20585e-15 1.22948e-14 1.17988e-14 
133 1.47781e-14 8.14056e-15 2.54814e-14 
137 1.81563e-14 -4.70423e-15 2.62792e-14 
141 9.67108e-15 -9.65051e-15 5.34648e-15 
145 7.82306e-15 1.13108e-14 1.51932e-14 
149 1.30291e-14 7.94889e-15 2.36038e-14 
153 1.71247e-14 -8.83633e-15 4.39663e-14 
157 2.89325e-15 -7.42782e-15 1.1176e-14 
161 -2.32873e-16 3.40986e-15 6.75371e-15 
165 6.09555e-16 4.49448e-16 1.00742e-14 
169 -1.34689e-15 -1.68522e-15 4.47936e-15 
173 -3.09393e-15 -1.02269e-14 2.00981e-14 
177 -1.12153e-14 8.80364e-15 1.40738e-14 
181 -1.89597e-15 1.07333e-15 3.54729e-15 
185 -3.1775e-15 -1.52415e-16 4.73517e-15 
189 -9.27722e-15 -7.74574e-15 1.45947e-14 
2 7.36277e-15 2.36052e-15 5.08753e-15 
6 3.6749e-14 2.62772e-14 8.61307e-15 
10 3.63323e-14 2.17852e-14 -6.27171e-15 
14 3.37195e-14 2.11693e-14 -2.08016e-14 
18 8.67981e-15 1.8159e-15 6.18377e-15 
22 1.99684e-14 4.19135e-15 3.86374e-15 
26 2.55254e-14 2.12155e-15 -3.83758e-15 
30 2.44018e-14 1.2462e-15 -1.26519e-14 
34 2.00303e-14 -5.50504e-15 1.23999e-14 
38 6.23163e-14 -1.68711e-14 2.17748e-14 
42 7.22711e-14 -1.78939e-14 -1.57506e-14 
46 1.8838e-14 -7.60539e-15 -1.35881e-14 
50 1.23836e-14 -1.0874e-14 1.12516e-14 
54 4.04532e-14 -2.79983e-14 1.68861e-14 
58 1.81406e-14 -1.58295e-14 -6.9846e-15 
62 1.16973e-14 -1.04347e-14 -1.14612e-14 
66 1.46931e-14 1.63239e-14 1.11477e-14 
70 2.21152e-14 2.64819e-14 1.25113e-15 
74 2.43596e-15 2.13185e-15 -1.83722e-15 
78 1.59871e-14 2.31822e-14 -1.59517e-14 
82 9.9118e-15 3.44385e-14 2.3101e-14 
86 6.29998e-15 6.78256e-15 4.93467e-16 
90 6.7409e-15 2.73016e-14 -1.16726e-15 
94 5.68223e-15 1.66407e-14 -7.64752e-15 
98 0 0 0 
102 1.98476e-15 8.44753e-15 3.54861e-15 
106 -3.89607e-16 3.63005e-15 -1.29186e-15 
110 -4.66376e-15 1.73331e-14 -1.5296e-14 
114 0 0 0 
118 5.44903e-16 3.87438e-15 -9.46527e-16 
122 -9.18486e-17 5.5006e-15 -3.71565e-15 
126 -1.78232e-15 2.21236e-15 3.37394e-16 
130 1.87777e-14 1.33164e-14 2.5029e-14 
134 1.22024e-14 2.46403e-15 1.44857e-14 
138 1.86396e-14 -4.16724e-15 2.60418e-14 
142 2.42544e-14 -2.50423e-14 3.60394e-14 
146 0 0 0 
150 1.5888e-15 3.12924e-15 1.1883e-14 
154 0 0 0 
158 8.85985e-16 -2.60954e-15 3.13177e-15 
162 -8.00481e-16 1.92389e-15 2.73749e-16 
166 -1.43232e-15 5.13735e-15 1.95608e-14 
170 -6.26159e-15 -3.71345e-15 1.68185e-14 
174 3.2283e-16 -5.44711e-15 5.10515e-15 
178 -6.98262e-16 2.43788e-15 1.62214e-15 
182 0 0 0 
186 -9.01175e-16 1.45756e-15 2.0479e-15 
190 -1.71004e-15 -2.35624e-15 2.80851e-15 
3 0 0 0 
7 0 0 0 
11 0 0 0 
15 0 0 0 
19 0 0 0 
23 0 0 0 
27 0 0 0 
31 0 0 0 
35 0 0 0 
39 0 0 0 
43 0 0 0 
47 -1.69493e-15 -1.29155e-15 -1.71668e-15 
51 0 0 0 
55 0 0 0 
59 0 0 0 
63 -1.27256e-15 -1.36283e-15 -1.86007e-15 
67 1.73773e-14 -2.15463e-14 2.29672e-14 
71 1.29638e-14 -1.94441e-14 7.35877e-15 
75 1.81363e-14 -2.29859e-14 -2.47306e-15 
79 7.47297e-15 -1.25981e-14 -1.17315e-14 
83 1.83618e-15 -8.85779e-15 4.00218e-15 
87 5.79105e-15 -2.14357e-14 4.6393e-15 
91 5.9979e-15 -3.29983e-14 -7.65447e-15 
95 3.49782e-15 -3.41073e-15 -1.37351e-15 
99 -5.54037e-16 -1.05241e-14 9.04298e-15 
103 -2.28564e-15 -1.07114e-14 2.72717e-15 
107 -4.6504e-15 -2.78371e-14 -4.27064e-15 
111 -2.44776e-15 -1.72366e-14 -5.98714e-15 
115 -7.06644e-15 -6.98399e-15 5.20054e-15 
119 -4.65869e-15 -4.44519e-15 2.90429e-15 
123 -3.91649e-15 -4.65702e-15 -2.69627e-16 
127 0 0 0 
131 1.44031e-14 1.39889e-14 -1.80487e-14 
135 1.46105e-14 1.00514e-14 -2.4678e-14 
139 3.53682e-15 4.45467e-16 -5.46e-15 
143 3.62379e-15 -6.7203e-15 -6.93378e-15 
147 5.42631e-15 1.91121e-14 -2.26332e-14 
151 9.53891e-15 1.04448e-14 -2.31499e-14 
155 9.25473e-15 -3.54449e-15 -2.95224e-14 
159 6.40412e-15 -1.34242e-14 -1.68644e-14 
163 -4.47194e-16 2.96902e-15 -6.37173e-15 
167 -8.28895e-15 7.36803e-15 -1.91308e-14 
171 7.08959e-16 -3.057e-15 -2.45791e-14 
175 -3.07281e-16 -4.9263e-15 -6.67371e-15 
179 -3.96246e-15 5.74707e-15 -1.07406e-14 
183 -4.2431e-15 2.25986e-15 -4.56279e-15 
187 -2.95015e-15 -1.68845e-15 -5.77969e-15 
191 -1.34187e-15 -3.84986e-15 -3.73942e-15 
4 0 0 0 
8 -8.71115e-16 8.17009e-16 1.14663e-15 
12 0 0 0 
16 -2.7781e-15 1.61612e-15 -2.7934e-15 
20 0 0 0 
24 0 0 0 
28 0 0 0 
32 0 0 0 
36 0 0 0 
40 0 0 0 
44 0 0 0 
48 -6.71188e-16 -1.21331e-15 -2.03683e-15 
52 -1.01367e-16 -4.47377e-15 1.39169e-15 
56 -2.89447e-15 -6.54541e-16 -3.25047e-16 
60 -1.9188e-15 -2.97022e-15 -1.46048e-15 
64 0 0 0 
68 1.99198e-14 -1.68533e-14 1.25341e-14 
72 2.08416e-14 -2.02237e-14 5.71592e-15 
76 1.55668e-14 -2.3519e-14 -3.98108e-15 
80 2.19753e-14 -3.60012e-14 -2.13721e-14 
84 3.76238e-15 -1.14555e-14 7.06517e-15 
88 3.98127e-15 -1.51992e-14 5.31277e-15 
92 3.58854e-15 -2.32518e-14 -2.52389e-15 
96 1.55475e-15 -4.50655e-15 -2.05409e-16 
100 3.74764e-16 -5.92554e-15 2.87342e-15 
104 -4.44613e-15 -1.64937e-14 5.69214e-15 
108 -2.05531e-15 -9.05474e-15 -2.91332e-16 
112 4.74868e-16 -3.90451e-15 -2.32925e-15 
116 -1.9736e-15 -2.72144e-15 8.54419e-16 
120 -2.54897e-15 -3.90113e-15 2.56637e-16 
124 0 0 0 
128 -6.51038e-15 -1.05884e-14 -5.87748e-15 
132 1.00991e-14 8.28236e-15 -1.76352e-14 
136 1.35359e-15 -3.2654e-16 -2.22733e-15 
140 4.79687e-15 -1.40933e-15 -9.32518e-15 
144 3.58059e-14 -1.81209e-14 -4.59618e-14 
148 2.4746e-15 3.67937e-15 -4.48183e-15 
152 6.32727e-15 7.43158e-16 -1.35879e-14 
156 3.67717e-15 2.96714e-16 -7.58477e-15 
160 2.00743e-16 -4.82609e-15 -4.85991e-15 
164 -2.96565e-15 9.64186e-15 -7.52493e-15 
168 2.26551e-15 8.14347e-15 -1.75512e-14 
172 2.38299e-15 -3.58765e-15 -1.24898e-14 
176 0 0 0 
180 -2.37451e-15 2.28316e-15 -2.7776e-15 
184 -1.24361e-15 1.28596e-15 -4.09496e-15 
188 -2.33123e-15 -1.37143e-16 -1.67652e-15 
192 -5.48073e-16 -2.51781e-15 -2.47947e-15 
