ITEM: TIMESTEP
25000
ITEM: NUMBER OF SURFS
192
ITEM: BOX BOUNDS oo rr rr
0 5e-06
0 5e-06
0 5e-06
ITEM: SURFS id f_ID_drag_fix[1] f_ID_drag_fix[2] f_ID_drag_fix[3] 
1 0 0 0 
5 0 0 0 
9 0 0 0 
13 0 0 0 
17 0 0 0 
21 0 0 0 
25 0 0 0 
29 0 0 0 
33 0 0 0 
37 0 0 0 
41 0 0 0 
45 0 0 0 
49 0 0 0 
53 0 0 0 
57 0 0 0 
61 0 0 0 
65 0 0 0 
69 0 0 0 
73 0 0 0 
77 0 0 0 
81 0 0 0 
85 0 0 0 
89 0 0 0 
93 0 0 0 
97 0 0 0 
101 0 0 0 
105 0 0 0 
109 0 0 0 
113 0 0 0 
117 0 0 0 
121 0 0 0 
125 0 0 0 
129 0 0 0 
133 0 0 0 
137 0 0 0 
141 0 0 0 
145 0 0 0 
149 0 0 0 
153 0 0 0 
157 0 0 0 
161 0 0 0 
165 0 0 0 
169 0 0 0 
173 0 0 0 
177 0 0 0 
181 0 0 0 
185 0 0 0 
189 0 0 0 
2 0 0 0 
6 0 0 0 
10 0 0 0 
14 0 0 0 
18 0 0 0 
22 0 0 0 
26 0 0 0 
30 0 0 0 
34 0 0 0 
38 0 0 0 
42 0 0 0 
46 0 0 0 
50 0 0 0 
54 0 0 0 
58 0 0 0 
62 0 0 0 
66 0 0 0 
70 0 0 0 
74 0 0 0 
78 0 0 0 
82 0 0 0 
86 0 0 0 
90 0 0 0 
94 0 0 0 
98 0 0 0 
102 0 0 0 
106 0 0 0 
110 0 0 0 
114 0 0 0 
118 0 0 0 
122 0 0 0 
126 0 0 0 
130 0 0 0 
134 0 0 0 
138 0 0 0 
142 0 0 0 
146 0 0 0 
150 0 0 0 
154 0 0 0 
158 0 0 0 
162 0 0 0 
166 0 0 0 
170 0 0 0 
174 0 0 0 
178 0 0 0 
182 0 0 0 
186 0 0 0 
190 0 0 0 
3 0 0 0 
7 0 0 0 
11 0 0 0 
15 0 0 0 
19 0 0 0 
23 0 0 0 
27 0 0 0 
31 0 0 0 
35 0 0 0 
39 0 0 0 
43 0 0 0 
47 0 0 0 
51 0 0 0 
55 0 0 0 
59 0 0 0 
63 0 0 0 
67 0 0 0 
71 0 0 0 
75 0 0 0 
79 0 0 0 
83 0 0 0 
87 0 0 0 
91 0 0 0 
95 0 0 0 
99 0 0 0 
103 0 0 0 
107 0 0 0 
111 0 0 0 
115 0 0 0 
119 0 0 0 
123 0 0 0 
127 0 0 0 
131 0 0 0 
135 0 0 0 
139 0 0 0 
143 0 0 0 
147 0 0 0 
151 0 0 0 
155 0 0 0 
159 0 0 0 
163 0 0 0 
167 0 0 0 
171 0 0 0 
175 0 0 0 
179 0 0 0 
183 0 0 0 
187 0 0 0 
191 0 0 0 
4 0 0 0 
8 0 0 0 
12 0 0 0 
16 0 0 0 
20 0 0 0 
24 0 0 0 
28 0 0 0 
32 0 0 0 
36 0 0 0 
40 0 0 0 
44 0 0 0 
48 0 0 0 
52 0 0 0 
56 0 0 0 
60 0 0 0 
64 0 0 0 
68 0 0 0 
72 0 0 0 
76 0 0 0 
80 0 0 0 
84 0 0 0 
88 0 0 0 
92 0 0 0 
96 0 0 0 
100 0 0 0 
104 0 0 0 
108 0 0 0 
112 0 0 0 
116 0 0 0 
120 0 0 0 
124 0 0 0 
128 0 0 0 
132 0 0 0 
136 0 0 0 
140 0 0 0 
144 0 0 0 
148 0 0 0 
152 0 0 0 
156 0 0 0 
160 0 0 0 
164 0 0 0 
168 0 0 0 
172 0 0 0 
176 0 0 0 
180 0 0 0 
184 0 0 0 
188 0 0 0 
192 0 0 0 
ITEM: TIMESTEP
50000
ITEM: NUMBER OF SURFS
192
ITEM: BOX BOUNDS oo rr rr
0 5e-06
0 5e-06
0 5e-06
ITEM: SURFS id f_ID_drag_fix[1] f_ID_drag_fix[2] f_ID_drag_fix[3] 
1 2.34526e-14 1.28708e-14 1.66776e-14 
5 3.12516e-14 1.79771e-14 8.0021e-15 
9 3.16253e-14 2.28392e-14 -7.4153e-15 
13 9.02235e-15 7.67217e-15 -7.79524e-15 
17 3.65157e-14 7.11598e-15 2.6751e-14 
21 4.2893e-14 9.41732e-15 1.15393e-14 
25 5.80273e-14 9.36257e-15 -1.442e-14 
29 1.97594e-14 5.75683e-15 -1.42718e-14 
33 3.00891e-14 -5.7267e-15 1.65167e-14 
37 5.32168e-14 -1.02904e-14 9.4987e-15 
41 5.46137e-14 -1.2003e-14 -1.05387e-14 
45 2.97897e-14 -7.46674e-15 -1.94002e-14 
49 3.84007e-14 -2.01567e-14 2.13242e-14 
53 2.92499e-14 -1.79804e-14 5.30283e-15 
57 3.00488e-14 -2.04126e-14 -5.09529e-15 
61 2.28455e-14 -1.58343e-14 -1.14926e-14 
65 1.91839e-14 2.10657e-14 1.55803e-14 
69 6.80192e-15 8.19213e-15 3.05293e-16 
73 1.40551e-14 1.80188e-14 -4.99459e-15 
77 7.01041e-15 6.55977e-15 -4.86681e-15 
81 3.5681e-15 1.28684e-14 8.09544e-15 
85 6.57029e-15 2.51834e-14 5.44415e-15 
89 7.21971e-15 3.0075e-14 -9.94736e-15 
93 4.4015e-15 1.0134e-14 -7.38426e-15 
97 -6.41937e-16 5.46769e-15 3.04907e-15 
101 -2.72075e-15 1.41773e-14 1.16365e-15 
105 -7.17965e-16 8.92451e-15 -2.44865e-15 
109 -3.47701e-16 1.54065e-15 -1.5589e-15 
113 -4.58481e-15 7.83485e-15 3.73887e-15 
117 -2.82146e-15 4.56534e-15 1.28638e-15 
121 -1.55888e-15 2.91738e-15 -1.13174e-15 
125 -4.59945e-15 6.70652e-15 -4.46496e-15 
129 1.37473e-14 1.46852e-14 2.0106e-14 
133 1.32387e-14 3.99048e-15 1.65946e-14 
137 1.24368e-14 -4.91608e-15 1.84282e-14 
141 1.55639e-14 -1.39542e-14 1.53908e-14 
145 2.3642e-15 6.59155e-15 8.32532e-15 
149 4.87041e-15 6.49902e-15 2.23413e-14 
153 7.4795e-15 -7.14674e-15 2.51834e-14 
157 4.51668e-15 -8.40632e-15 1.46451e-14 
161 -1.51091e-15 4.767e-15 8.85756e-15 
165 -2.30654e-15 2.58181e-15 1.25485e-14 
169 -8.99056e-16 -2.20518e-15 8.20351e-15 
173 -2.36712e-15 -7.87917e-15 1.40112e-14 
177 -2.72194e-15 3.46921e-15 4.03204e-15 
181 -1.83817e-15 2.05526e-16 4.5225e-15 
185 -1.85196e-15 -1.08938e-15 2.67493e-15 
189 -2.4245e-15 -2.49835e-15 3.86096e-15 
2 2.24895e-14 1.59638e-14 1.37697e-14 
6 3.07624e-14 2.04424e-14 5.88054e-15 
10 2.60929e-14 1.64947e-14 -5.58479e-15 
14 5.19103e-14 2.79416e-14 -2.76036e-14 
18 3.11434e-14 6.536e-15 2.05283e-14 
22 6.21725e-14 1.50677e-14 1.44455e-14 
26 4.64517e-14 8.77806e-15 -7.70775e-15 
30 2.41553e-14 1.91978e-15 -1.34963e-14 
34 1.85781e-14 -6.17491e-15 1.21754e-14 
38 5.03563e-14 -1.20037e-14 9.51387e-15 
42 5.9129e-14 -1.26669e-14 -1.3785e-14 
46 2.49103e-14 -4.72907e-15 -1.69574e-14 
50 2.29401e-14 -1.79225e-14 1.70929e-14 
54 1.9609e-14 -1.27562e-14 5.01642e-15 
58 2.4555e-14 -1.35821e-14 -7.20462e-15 
62 2.46446e-14 -1.18457e-14 -1.70728e-14 
66 1.68004e-14 1.93879e-14 1.36014e-14 
70 1.74925e-14 2.39911e-14 3.24582e-15 
74 1.07874e-14 1.54459e-14 -3.04487e-15 
78 2.06568e-14 3.01558e-14 -1.58343e-14 
82 2.18625e-15 1.32058e-14 8.35647e-15 
86 1.35018e-15 1.422e-14 3.22844e-15 
90 3.57119e-15 7.66921e-15 -2.01484e-15 
94 2.31304e-15 8.50811e-15 -4.86188e-15 
98 -1.2606e-15 5.00926e-15 2.59047e-15 
102 -1.00278e-15 1.14771e-14 2.52068e-15 
106 -1.94989e-15 1.01451e-14 -2.58478e-15 
110 -1.27774e-15 9.13824e-15 -5.87758e-15 
114 -1.2941e-15 1.12231e-15 1.52605e-15 
118 -9.78203e-17 7.87707e-16 3.94572e-16 
122 -1.7931e-15 4.55523e-15 -8.04275e-16 
126 -2.6524e-15 5.43063e-15 -3.85697e-15 
130 1.53597e-14 1.16216e-14 1.76266e-14 
134 1.23473e-14 2.7549e-15 1.72892e-14 
138 1.22988e-14 -2.63862e-15 1.73405e-14 
142 2.15182e-14 -1.86957e-14 2.95478e-14 
146 4.05892e-15 8.20414e-15 9.49252e-15 
150 5.34614e-15 4.27488e-15 2.07386e-14 
154 6.67959e-15 -4.42016e-15 2.43611e-14 
158 4.44441e-15 -9.55582e-15 1.65785e-14 
162 -1.87519e-15 5.74378e-15 7.37935e-15 
166 -1.32296e-15 1.69068e-15 5.70562e-15 
170 -2.11152e-15 -2.15137e-15 1.32461e-14 
174 -9.5727e-16 -4.79639e-15 7.98416e-15 
178 8.65369e-17 3.32731e-16 7.33677e-16 
182 -7.1798e-16 -3.11099e-16 1.12278e-15 
186 -1.47206e-15 -3.3209e-16 4.26542e-15 
190 -1.56984e-15 -2.93382e-15 4.10646e-15 
3 -1.45393e-15 1.13391e-15 1.00426e-16 
7 -8.12065e-16 4.29905e-16 2.36235e-16 
11 0 0 0 
15 -1.11393e-15 1.49537e-15 -1.09647e-15 
19 -9.20461e-16 2.76269e-16 8.47595e-16 
23 0 0 0 
27 -5.47837e-16 3.33945e-16 -2.82502e-16 
31 -5.99854e-16 7.61875e-17 -1.41983e-16 
35 -8.51049e-16 -2.65746e-16 1.39352e-15 
39 0 0 0 
43 0 0 0 
47 -5.38024e-16 -2.53023e-16 -7.44502e-16 
51 -4.10956e-16 -3.70645e-16 8.72204e-17 
55 -7.88454e-16 -6.02141e-16 8.93036e-17 
59 -4.64893e-16 -3.02783e-16 7.54154e-17 
63 -4.65307e-17 -5.93329e-16 1.2529e-16 
67 9.59452e-15 -1.34275e-14 1.04702e-14 
71 1.934e-14 -2.48414e-14 8.89392e-15 
75 1.72214e-14 -2.39995e-14 -4.49738e-15 
79 9.64215e-15 -1.04811e-14 -7.39702e-15 
83 3.23259e-15 -1.26309e-14 9.10943e-15 
87 5.95062e-15 -2.45932e-14 4.66103e-15 
91 6.68003e-15 -2.24746e-14 -7.57084e-15 
95 4.53032e-15 -1.44545e-14 -1.00455e-14 
99 -1.4246e-15 -9.58036e-15 5.47115e-15 
103 -2.28855e-15 -1.37967e-14 3.84128e-15 
107 -1.95224e-15 -1.10466e-14 -2.77697e-15 
111 -2.28011e-16 -6.30852e-15 -4.78039e-15 
115 -1.74373e-15 -7.04731e-15 3.28934e-15 
119 -9.5256e-16 -1.91038e-15 8.73831e-16 
123 -2.22859e-15 -2.67228e-15 -1.5161e-15 
127 -7.37495e-16 -2.08622e-15 -2.4384e-15 
131 1.23349e-14 1.44643e-14 -1.73775e-14 
135 1.63531e-14 5.00252e-15 -2.38836e-14 
139 1.72503e-14 -4.58878e-15 -2.30435e-14 
143 9.70202e-15 -9.13884e-15 -1.12826e-14 
147 2.31346e-15 8.29364e-15 -1.22649e-14 
151 5.07087e-15 4.60538e-15 -1.97924e-14 
155 4.79369e-15 -4.5626e-15 -2.48638e-14 
159 6.70358e-15 -1.26816e-14 -1.67758e-14 
163 -8.49478e-16 4.58005e-15 -9.84228e-15 
167 -5.94972e-16 1.89308e-15 -1.0983e-14 
171 -2.0195e-15 -1.63543e-15 -8.43711e-15 
175 -7.58106e-16 -3.08705e-15 -5.82921e-15 
179 -9.90786e-16 1.45524e-15 -3.29393e-15 
183 -2.94292e-15 8.51942e-16 -5.38977e-15 
187 -2.40017e-15 -7.18662e-16 -4.45626e-15 
191 -2.40716e-15 -2.75927e-15 -5.54589e-15 
4 -2.81609e-16 3.74705e-17 5.00134e-16 
8 -5.16563e-16 2.69562e-16 2.06105e-16 
12 -9.48826e-16 9.40891e-16 -2.21144e-17 
16 -3.15336e-15 3.05598e-15 -1.44095e-15 
20 -3.04504e-16 -6.61005e-17 1.92793e-16 
24 0 0 0 
28 0 0 0 
32 -7.64476e-17 1.16868e-16 -2.32374e-16 
36 0 0 0 
40 -5.38788e-16 -6.52276e-16 3.66626e-16 
44 0 0 0 
48 -2.89302e-15 -2.04297e-16 -3.19212e-15 
52 -9.5379e-16 -1.25547e-15 1.52611e-15 
56 -1.10155e-15 -4.85677e-16 7.32414e-16 
60 -9.03237e-16 -6.07491e-16 -3.43484e-16 
64 -1.93319e-15 -1.65743e-15 -1.6074e-15 
68 1.3033e-14 -1.37942e-14 9.31236e-15 
72 8.85838e-15 -8.83417e-15 2.48585e-15 
76 1.79644e-14 -2.52405e-14 -4.43178e-15 
80 1.8015e-14 -2.78112e-14 -1.70037e-14 
84 4.97295e-15 -1.26158e-14 7.43812e-15 
88 5.8089e-15 -2.26037e-14 5.77941e-15 
92 4.57189e-15 -1.59116e-14 -4.10624e-15 
96 4.97905e-15 -1.67195e-14 -9.40277e-15 
100 -8.54871e-16 -2.24304e-15 2.23869e-15 
104 -2.12303e-15 -1.67869e-14 4.89112e-15 
108 -3.1788e-16 -8.0849e-15 -1.10094e-15 
112 -2.6179e-15 -6.51155e-15 -5.08682e-15 
116 -1.20848e-15 -1.9108e-15 1.87582e-15 
120 0 0 0 
124 8.28347e-17 -6.65599e-16 -1.84579e-16 
128 -3.93961e-16 -5.92066e-16 -4.67482e-16 
132 1.79027e-14 1.38205e-14 -2.36469e-14 
136 1.42088e-14 3.20727e-15 -1.72414e-14 
140 1.40954e-14 -3.55504e-15 -2.12051e-14 
144 1.68128e-14 -1.54506e-14 -2.27799e-14 
148 3.37706e-15 6.68601e-15 -1.20936e-14 
152 4.20192e-15 3.88715e-15 -1.74774e-14 
156 4.53126e-15 -4.5219e-15 -2.03291e-14 
160 2.7888e-15 -6.59079e-15 -1.12219e-14 
164 -6.6328e-16 1.4231e-15 -2.79191e-15 
168 -2.62328e-15 3.21543e-15 -1.62943e-14 
172 -1.84441e-15 -2.90567e-15 -1.16537e-14 
176 -2.1287e-15 -7.31091e-15 -9.03969e-15 
180 -1.18365e-15 9.07588e-16 -5.9841e-16 
184 -2.06607e-15 2.29424e-16 -2.11885e-15 
188 -1.59009e-15 -1.2392e-15 -2.91702e-15 
192 -5.08952e-16 -8.74857e-16 -1.15752e-15 
