ITEM: TIMESTEP
3000
ITEM: NUMBER OF SURFS
192
ITEM: BOX BOUNDS oo rr rr
0 0.0005
0 0.0005
0 0.0005
ITEM: SURFS id f_f_drag_blocks[1] f_f_drag_blocks[2] f_f_drag_blocks[3] 
1 0 0 0 
5 0 0 0 
9 0 0 0 
13 0 0 0 
17 0 0 0 
21 0 0 0 
25 0 0 0 
29 0 0 0 
33 0 0 0 
37 0 0 0 
41 0 0 0 
45 0 0 0 
49 0 0 0 
53 0 0 0 
57 0 0 0 
61 0 0 0 
65 0 0 0 
69 0 0 0 
73 0 0 0 
77 0 0 0 
81 0 0 0 
85 0 0 0 
89 0 0 0 
93 0 0 0 
97 0 0 0 
101 0 0 0 
105 0 0 0 
109 0 0 0 
113 0 0 0 
117 0 0 0 
121 0 0 0 
125 0 0 0 
129 0 0 0 
133 0 0 0 
137 0 0 0 
141 0 0 0 
145 0 0 0 
149 0 0 0 
153 0 0 0 
157 0 0 0 
161 0 0 0 
165 0 0 0 
169 0 0 0 
173 0 0 0 
177 0 0 0 
181 0 0 0 
185 0 0 0 
189 0 0 0 
2 0 0 0 
6 0 0 0 
10 0 0 0 
14 0 0 0 
18 0 0 0 
22 0 0 0 
26 0 0 0 
30 0 0 0 
34 0 0 0 
38 0 0 0 
42 0 0 0 
46 0 0 0 
50 0 0 0 
54 0 0 0 
58 0 0 0 
62 0 0 0 
66 0 0 0 
70 0 0 0 
74 0 0 0 
78 0 0 0 
82 0 0 0 
86 0 0 0 
90 0 0 0 
94 0 0 0 
98 0 0 0 
102 0 0 0 
106 0 0 0 
110 0 0 0 
114 0 0 0 
118 0 0 0 
122 0 0 0 
126 0 0 0 
130 0 0 0 
134 0 0 0 
138 0 0 0 
142 0 0 0 
146 0 0 0 
150 0 0 0 
154 0 0 0 
158 0 0 0 
162 0 0 0 
166 0 0 0 
170 0 0 0 
174 0 0 0 
178 0 0 0 
182 0 0 0 
186 0 0 0 
190 0 0 0 
3 0 0 0 
7 0 0 0 
11 0 0 0 
15 0 0 0 
19 0 0 0 
23 0 0 0 
27 0 0 0 
31 0 0 0 
35 0 0 0 
39 0 0 0 
43 0 0 0 
47 0 0 0 
51 0 0 0 
55 0 0 0 
59 0 0 0 
63 0 0 0 
67 0 0 0 
71 0 0 0 
75 0 0 0 
79 0 0 0 
83 0 0 0 
87 0 0 0 
91 0 0 0 
95 0 0 0 
99 0 0 0 
103 0 0 0 
107 0 0 0 
111 0 0 0 
115 0 0 0 
119 0 0 0 
123 0 0 0 
127 0 0 0 
131 0 0 0 
135 0 0 0 
139 0 0 0 
143 0 0 0 
147 0 0 0 
151 0 0 0 
155 0 0 0 
159 0 0 0 
163 0 0 0 
167 0 0 0 
171 0 0 0 
175 0 0 0 
179 0 0 0 
183 0 0 0 
187 0 0 0 
191 0 0 0 
4 0 0 0 
8 0 0 0 
12 0 0 0 
16 0 0 0 
20 0 0 0 
24 0 0 0 
28 0 0 0 
32 0 0 0 
36 0 0 0 
40 0 0 0 
44 0 0 0 
48 0 0 0 
52 0 0 0 
56 0 0 0 
60 0 0 0 
64 0 0 0 
68 0 0 0 
72 0 0 0 
76 0 0 0 
80 0 0 0 
84 0 0 0 
88 0 0 0 
92 0 0 0 
96 0 0 0 
100 0 0 0 
104 0 0 0 
108 0 0 0 
112 0 0 0 
116 0 0 0 
120 0 0 0 
124 0 0 0 
128 0 0 0 
132 0 0 0 
136 0 0 0 
140 0 0 0 
144 0 0 0 
148 0 0 0 
152 0 0 0 
156 0 0 0 
160 0 0 0 
164 0 0 0 
168 0 0 0 
172 0 0 0 
176 0 0 0 
180 0 0 0 
184 0 0 0 
188 0 0 0 
192 0 0 0 
ITEM: TIMESTEP
4000
ITEM: NUMBER OF SURFS
192
ITEM: BOX BOUNDS oo rr rr
0 0.0005
0 0.0005
0 0.0005
ITEM: SURFS id f_f_drag_blocks[1] f_f_drag_blocks[2] f_f_drag_blocks[3] 
1 1.31093e-10 7.46148e-11 9.0697e-11 
5 2.22815e-10 1.31782e-10 6.10406e-11 
9 2.62906e-10 1.73127e-10 -5.39891e-11 
13 9.94117e-11 8.22612e-11 -8.19801e-11 
17 1.48555e-10 3.56991e-11 9.63579e-11 
21 5.62504e-10 1.1158e-10 1.28433e-10 
25 5.07845e-10 1.12733e-10 -1.05772e-10 
29 3.04823e-10 7.04508e-11 -1.98956e-10 
33 2.05553e-10 -4.09284e-11 1.19844e-10 
37 4.86464e-10 -1.06233e-10 9.68728e-11 
41 5.51976e-10 -1.22823e-10 -1.17834e-10 
45 1.9694e-10 -4.92245e-11 -1.21163e-10 
49 1.16994e-10 -6.36843e-11 6.00668e-11 
53 1.86252e-10 -1.17765e-10 3.63684e-11 
57 2.47723e-10 -1.62339e-10 -4.87631e-11 
61 1.41971e-10 -1.0921e-10 -8.14046e-11 
65 6.23786e-11 8.39959e-11 6.77049e-11 
69 1.19324e-10 1.69793e-10 4.86852e-11 
73 1.44881e-10 1.8806e-10 -4.25366e-11 
77 8.36092e-11 9.77552e-11 -7.96693e-11 
81 2.21208e-11 7.85129e-11 5.88186e-11 
85 5.9611e-11 2.02828e-10 4.08547e-11 
89 7.11035e-11 2.12228e-10 -4.79768e-11 
93 4.15869e-11 1.17625e-10 -8.37803e-11 
97 -4.10364e-12 6.20634e-11 4.31858e-11 
101 -1.97948e-12 9.11012e-11 1.74586e-11 
105 -1.16292e-11 7.88351e-11 -1.77366e-11 
109 -8.01264e-12 6.09995e-11 -4.02839e-11 
113 -6.24921e-12 2.10682e-11 1.23365e-11 
117 -1.12091e-11 2.48151e-11 3.69371e-12 
121 -3.75525e-12 8.98177e-12 -3.05245e-13 
125 -1.04348e-11 1.83772e-11 -9.29927e-12 
129 6.48218e-11 6.4279e-11 8.5254e-11 
133 1.17857e-10 5.00748e-11 1.68746e-10 
137 1.55067e-10 -5.28969e-11 1.9401e-10 
141 8.49838e-11 -8.11753e-11 9.12145e-11 
145 2.2646e-11 4.67624e-11 7.26268e-11 
149 5.56333e-11 3.69527e-11 1.95144e-10 
153 7.49449e-11 -4.649e-11 1.9964e-10 
157 3.25522e-11 -6.76731e-11 9.43613e-11 
161 -4.26437e-12 4.04615e-11 5.86709e-11 
165 -1.4463e-11 2.50194e-11 8.92981e-11 
169 -1.09287e-11 -2.32883e-11 1.18664e-10 
173 -4.3378e-12 -2.77034e-11 4.24272e-11 
177 -4.6355e-12 1.04376e-11 1.7748e-11 
181 -1.35988e-11 2.83246e-12 2.39618e-11 
185 -9.83178e-12 -3.48667e-12 1.80695e-11 
189 -5.89883e-12 -9.36672e-12 1.1782e-11 
2 1.36854e-10 9.72253e-11 8.3797e-11 
6 1.90644e-10 1.28766e-10 3.76074e-11 
10 2.12451e-10 1.25315e-10 -3.87564e-11 
14 1.44776e-10 8.4933e-11 -8.15823e-11 
18 2.53508e-10 6.43164e-11 1.52949e-10 
22 4.71267e-10 1.0411e-10 9.872e-11 
26 3.89779e-10 8.03628e-11 -7.53764e-11 
30 2.04533e-10 3.59294e-11 -1.24475e-10 
34 2.39898e-10 -4.93108e-11 1.5491e-10 
38 6.31406e-10 -1.36129e-10 1.35631e-10 
42 6.02772e-10 -1.09976e-10 -1.39578e-10 
46 1.77309e-10 -3.63392e-11 -1.21421e-10 
50 1.22055e-10 -8.88952e-11 8.84456e-11 
54 2.99314e-10 -2.03559e-10 6.92454e-11 
58 2.57869e-10 -1.50659e-10 -6.10901e-11 
62 1.00457e-10 -7.3369e-11 -7.33672e-11 
66 5.71503e-11 6.54377e-11 4.08111e-11 
70 1.26745e-10 1.77175e-10 3.6016e-11 
74 1.1731e-10 1.59901e-10 -3.30719e-11 
78 4.15975e-11 7.01805e-11 -4.24845e-11 
82 3.65414e-11 9.81827e-11 6.31221e-11 
86 6.05351e-11 1.9589e-10 4.18744e-11 
90 5.23886e-11 1.94891e-10 -3.33139e-11 
94 1.90493e-11 7.73946e-11 -4.86553e-11 
98 -8.23103e-12 6.44824e-11 4.46143e-11 
102 -1.11706e-11 1.10691e-10 2.61326e-11 
106 -1.4556e-11 1.00037e-10 -2.67552e-11 
110 -7.0567e-12 7.19445e-11 -5.06704e-11 
114 -1.00046e-11 1.37415e-11 1.05771e-11 
118 -1.91178e-11 3.82934e-11 7.77138e-12 
122 -1.66966e-11 2.60454e-11 -6.64335e-12 
126 -1.15175e-11 2.7505e-11 -1.68043e-11 
130 1.06491e-10 7.36655e-11 1.29985e-10 
134 1.32218e-10 3.9031e-11 1.54862e-10 
138 1.01769e-10 -2.42382e-11 1.43717e-10 
142 4.08887e-11 -4.15143e-11 6.4333e-11 
146 4.07974e-11 8.72967e-11 1.31162e-10 
150 5.87776e-11 3.82425e-11 1.89214e-10 
154 6.56843e-11 -4.922e-11 2.08203e-10 
158 2.66671e-11 -6.04042e-11 9.37505e-11 
162 -6.83624e-12 3.28248e-11 4.86622e-11 
166 -1.7304e-11 1.80087e-11 9.26623e-11 
170 -1.58755e-11 -2.36485e-11 1.08724e-10 
174 -7.54699e-12 -5.10772e-11 7.14274e-11 
178 -1.21635e-11 1.64225e-11 2.23655e-11 
182 -1.63929e-11 7.08796e-12 2.21492e-11 
186 -1.587e-11 -1.15216e-11 3.40252e-11 
190 -1.06137e-11 -1.68218e-11 2.05208e-11 
3 -1.05404e-11 7.02874e-12 8.99115e-12 
7 -1.07961e-11 5.42331e-12 3.18374e-12 
11 -5.5444e-12 5.02819e-12 -2.91565e-12 
15 -5.35221e-12 5.28063e-12 -7.10127e-12 
19 -9.97498e-12 -2.74273e-13 1.01502e-11 
23 -7.71483e-12 2.36111e-12 1.14522e-12 
27 -8.88535e-12 9.2232e-13 -5.5114e-12 
31 -3.14082e-12 5.45829e-13 -5.42039e-12 
35 -1.05197e-11 -2.02555e-12 7.97192e-12 
39 -1.54919e-11 -2.45942e-12 9.40338e-13 
43 -1.22468e-11 -4.39388e-12 -3.56963e-12 
47 -1.25308e-11 -4.13102e-12 -8.38946e-12 
51 -3.70684e-12 -2.39664e-12 3.39962e-12 
55 -4.4702e-12 -3.7944e-12 1.43751e-12 
59 -1.09872e-11 -5.89943e-12 -2.14492e-12 
63 -1.19804e-11 -1.09639e-11 -1.0691e-11 
67 4.30545e-11 -7.32785e-11 5.29475e-11 
71 1.16468e-10 -1.68152e-10 3.75681e-11 
75 1.46724e-10 -1.86411e-10 -4.63217e-11 
79 7.29888e-11 -8.20203e-11 -7.21875e-11 
83 2.22992e-11 -8.2442e-11 6.02875e-11 
87 5.15662e-11 -1.84513e-10 5.18487e-11 
91 8.38e-11 -2.44335e-10 -5.01387e-11 
95 4.61573e-11 -1.29064e-10 -9.02993e-11 
99 -1.37304e-11 -7.6307e-11 4.77337e-11 
103 -1.68229e-11 -1.04239e-10 2.75605e-11 
107 -2.50772e-11 -1.12813e-10 -3.36539e-11 
111 -1.16891e-11 -7.41107e-11 -5.27579e-11 
115 -6.23612e-12 -1.27312e-11 6.93173e-12 
119 -1.50209e-11 -2.98891e-11 8.8412e-12 
123 -1.36605e-11 -1.83925e-11 -6.45499e-12 
127 -6.63187e-12 -1.06935e-11 -4.28662e-12 
131 6.30394e-11 6.73613e-11 -9.15215e-11 
135 1.36352e-10 4.49671e-11 -1.93308e-10 
139 1.50137e-10 -5.28535e-11 -2.04197e-10 
143 7.31889e-11 -7.00334e-11 -8.34585e-11 
147 3.36703e-11 5.53364e-11 -8.90213e-11 
151 5.18953e-11 4.78529e-11 -1.88917e-10 
155 7.42426e-11 -5.62214e-11 -2.49363e-10 
159 3.03364e-11 -7.5155e-11 -9.25328e-11 
163 -7.43306e-12 3.73566e-11 -6.09018e-11 
167 -1.71531e-11 2.20355e-11 -1.01924e-10 
171 -1.43434e-11 -1.69327e-11 -8.0977e-11 
175 -6.37087e-12 -3.60938e-11 -5.84991e-11 
179 -9.00146e-12 8.25537e-12 -1.77236e-11 
183 -1.39756e-11 6.43027e-12 -2.79132e-11 
187 -1.29334e-11 -2.99785e-12 -2.25709e-11 
191 -8.52939e-12 -7.15146e-12 -1.33322e-11 
4 -1.04525e-11 9.69004e-12 4.5485e-12 
8 -8.40939e-12 1.01605e-11 5.87988e-12 
12 -6.83467e-12 2.58614e-12 -2.67747e-12 
16 -6.15549e-12 4.69049e-12 -3.0784e-12 
20 -8.66058e-12 -1.19479e-13 7.68031e-12 
24 -1.43499e-11 2.09965e-12 3.65773e-12 
28 -1.06214e-11 2.93595e-12 -4.57407e-12 
32 -5.17955e-12 8.25649e-13 -3.05946e-12 
36 -1.21067e-11 -3.71508e-12 8.11995e-12 
40 -2.54119e-11 -1.0395e-11 6.68884e-12 
44 -1.22813e-11 -3.39792e-12 -2.62328e-12 
48 -1.5435e-11 -1.66874e-12 -1.44856e-11 
52 -7.80609e-12 -6.09509e-12 4.27907e-12 
56 -1.16056e-11 -8.3286e-12 8.5055e-13 
60 -7.57263e-12 -4.95129e-12 -1.32351e-12 
64 -7.84404e-12 -6.63651e-12 -4.71368e-12 
68 7.94392e-11 -8.88259e-11 5.57296e-11 
72 9.72305e-11 -1.20268e-10 2.72814e-11 
76 9.4896e-11 -1.29393e-10 -2.42613e-11 
80 4.20426e-11 -6.91403e-11 -3.55929e-11 
84 3.16113e-11 -9.19278e-11 6.08801e-11 
88 6.52861e-11 -2.17349e-10 4.64732e-11 
92 4.85597e-11 -1.80558e-10 -4.56909e-11 
96 1.87146e-11 -5.61892e-11 -3.37756e-11 
100 -1.51881e-11 -5.60724e-11 4.46227e-11 
104 -1.42265e-11 -1.05057e-10 2.61319e-11 
108 -1.87957e-11 -9.75496e-11 -1.61213e-11 
112 -6.97639e-12 -4.89033e-11 -2.74254e-11 
116 -1.74141e-11 -2.04105e-11 1.94122e-11 
120 -2.10324e-11 -2.94285e-11 9.51136e-12 
124 -2.72307e-11 -4.69073e-11 -9.75912e-12 
128 -7.95616e-12 -1.4522e-11 -1.22018e-11 
132 6.89608e-11 5.33446e-11 -8.45098e-11 
136 1.39659e-10 4.05483e-11 -1.85739e-10 
140 9.57805e-11 -2.68849e-11 -1.23869e-10 
144 4.2938e-11 -4.60754e-11 -7.10158e-11 
148 2.90798e-11 6.40703e-11 -9.66248e-11 
152 5.40286e-11 5.24181e-11 -1.89e-10 
156 4.74503e-11 -3.73464e-11 -1.65095e-10 
160 2.70757e-11 -5.13156e-11 -9.00589e-11 
164 -1.40568e-11 3.34268e-11 -5.08891e-11 
168 -1.34655e-11 2.33303e-11 -1.12144e-10 
172 -8.48737e-12 -2.40778e-11 -1.12724e-10 
176 -3.73263e-12 -4.13176e-11 -5.3035e-11 
180 -1.44841e-11 1.39801e-11 -1.82465e-11 
184 -2.18481e-11 9.7771e-12 -3.92464e-11 
188 -1.24087e-11 -4.33137e-12 -1.69387e-11 
192 -6.34893e-12 -7.82169e-12 -1.46242e-11 
ITEM: TIMESTEP
5000
ITEM: NUMBER OF SURFS
192
ITEM: BOX BOUNDS oo rr rr
0 0.0005
0 0.0005
0 0.0005
ITEM: SURFS id f_f_drag_blocks[1] f_f_drag_blocks[2] f_f_drag_blocks[3] 
1 1.20718e-10 7.3407e-11 8.77371e-11 
5 2.16478e-10 1.23029e-10 4.96292e-11 
9 2.56265e-10 1.68894e-10 -5.84952e-11 
13 1.27412e-10 1.04301e-10 -9.04891e-11 
17 2.17353e-10 5.11006e-11 1.48474e-10 
21 5.73096e-10 1.2312e-10 1.23196e-10 
25 5.91553e-10 1.33919e-10 -1.20814e-10 
29 3.00925e-10 7.08592e-11 -1.97181e-10 
33 2.17522e-10 -4.11762e-11 1.28406e-10 
37 4.78987e-10 -9.12543e-11 8.97263e-11 
41 4.79904e-10 -1.03451e-10 -1.0344e-10 
45 2.89561e-10 -5.70682e-11 -1.72973e-10 
49 1.32449e-10 -6.14025e-11 6.56601e-11 
53 2.07083e-10 -1.21061e-10 3.57685e-11 
57 1.8237e-10 -1.32993e-10 -3.94336e-11 
61 1.3155e-10 -9.53109e-11 -7.81245e-11 
65 4.86282e-11 6.96978e-11 5.28943e-11 
69 1.05074e-10 1.44049e-10 3.31133e-11 
73 1.50312e-10 1.86386e-10 -4.72064e-11 
77 8.96294e-11 9.54463e-11 -7.51658e-11 
81 2.58131e-11 7.85104e-11 5.76846e-11 
85 5.08223e-11 2.05684e-10 4.82719e-11 
89 6.89874e-11 2.39102e-10 -5.46568e-11 
93 4.09512e-11 1.35729e-10 -9.43518e-11 
97 -9.58591e-13 4.61378e-11 3.02832e-11 
101 -1.68598e-11 8.86622e-11 1.73999e-11 
105 -7.59423e-12 1.14965e-10 -2.50115e-11 
109 -1.08474e-11 5.10629e-11 -3.32385e-11 
113 -1.37933e-11 2.3317e-11 9.06564e-12 
117 -6.52524e-12 1.05523e-11 4.75116e-14 
121 -1.79965e-11 2.54804e-11 -3.23555e-12 
125 -8.87386e-12 1.0833e-11 -8.32611e-12 
129 3.73537e-11 4.68998e-11 6.04743e-11 
133 1.23833e-10 4.50018e-11 1.82379e-10 
137 1.79978e-10 -6.06712e-11 2.21033e-10 
141 8.16953e-11 -7.44088e-11 9.03218e-11 
145 3.37833e-11 6.75512e-11 9.63636e-11 
149 5.70502e-11 4.93927e-11 1.96837e-10 
153 7.22493e-11 -7.00332e-11 2.47707e-10 
157 3.65628e-11 -6.85447e-11 1.00571e-10 
161 -2.10211e-12 3.20596e-11 5.13515e-11 
165 -9.67179e-12 1.87267e-11 8.77461e-11 
169 -9.02842e-12 -1.83774e-11 7.95529e-11 
173 -6.10087e-12 -4.25101e-11 6.33675e-11 
177 -1.42156e-11 1.32684e-11 3.00524e-11 
181 -1.03783e-11 5.05048e-12 2.10149e-11 
185 -8.87706e-12 -3.48284e-12 1.51197e-11 
189 -7.93385e-12 -8.48658e-12 1.33356e-11 
2 1.35703e-10 9.7433e-11 8.43161e-11 
6 2.16751e-10 1.48449e-10 4.22891e-11 
10 2.39001e-10 1.37828e-10 -4.21699e-11 
14 1.38791e-10 7.90998e-11 -8.64359e-11 
18 2.28136e-10 6.13025e-11 1.43407e-10 
22 4.88036e-10 1.09035e-10 1.00679e-10 
26 4.99766e-10 9.81283e-11 -1.07226e-10 
30 1.76033e-10 3.05372e-11 -1.07624e-10 
34 2.62586e-10 -7.51973e-11 1.82715e-10 
38 5.31519e-10 -1.23174e-10 1.08096e-10 
42 5.79878e-10 -1.28267e-10 -1.34134e-10 
46 2.49568e-10 -4.68014e-11 -1.67757e-10 
50 1.60122e-10 -1.29935e-10 1.14882e-10 
54 2.70944e-10 -1.77294e-10 6.53954e-11 
58 2.83849e-10 -1.69003e-10 -7.43391e-11 
62 1.12479e-10 -6.40478e-11 -7.0929e-11 
66 8.12118e-11 9.16969e-11 5.34526e-11 
70 9.9462e-11 1.27018e-10 2.61342e-11 
74 1.1216e-10 1.51664e-10 -2.99129e-11 
78 5.11616e-11 8.36053e-11 -5.10828e-11 
82 2.69004e-11 6.99542e-11 5.14196e-11 
86 4.80109e-11 1.71886e-10 3.71087e-11 
90 4.76787e-11 1.59131e-10 -3.90655e-11 
94 2.19556e-11 7.80168e-11 -4.80659e-11 
98 -5.67756e-12 6.07356e-11 4.05356e-11 
102 -1.88957e-11 1.19604e-10 3.32033e-11 
106 -7.24447e-12 9.12023e-11 -2.02534e-11 
110 -8.26237e-12 5.84215e-11 -4.15771e-11 
114 -1.14916e-11 1.57811e-11 1.32891e-11 
118 -1.59358e-11 2.63189e-11 8.92708e-12 
122 -1.04292e-11 1.94167e-11 -5.09848e-12 
126 -7.81979e-12 1.53697e-11 -1.12629e-11 
130 8.2717e-11 6.2728e-11 9.14044e-11 
134 1.06516e-10 3.06653e-11 1.39502e-10 
138 9.05221e-11 -3.02114e-11 1.28556e-10 
142 4.84674e-11 -4.32527e-11 6.96751e-11 
146 3.94895e-11 7.4285e-11 1.30221e-10 
150 6.10295e-11 4.39796e-11 1.85749e-10 
154 5.48673e-11 -4.52637e-11 2.08917e-10 
158 2.57676e-11 -5.62943e-11 8.88958e-11 
162 -9.61981e-12 4.92867e-11 7.58505e-11 
166 -1.89043e-11 2.27875e-11 1.11446e-10 
170 -9.6808e-12 -1.77653e-11 1.01853e-10 
174 -4.82943e-12 -3.11507e-11 4.74692e-11 
178 -9.99616e-12 1.15917e-11 1.16904e-11 
182 -1.72017e-11 3.45898e-12 2.38012e-11 
186 -9.13457e-12 -7.13193e-12 2.1487e-11 
190 -1.20269e-11 -1.43045e-11 2.24519e-11 
3 -5.84147e-12 3.27595e-12 6.81302e-12 
7 -4.31623e-12 4.36146e-12 1.6736e-12 
11 -1.23874e-11 1.15532e-11 -4.1373e-12 
15 -1.51755e-11 1.47054e-11 -1.53186e-11 
19 -4.77889e-12 1.07172e-12 4.24271e-12 
23 -8.03071e-12 2.76347e-12 1.15037e-12 
27 -1.82516e-11 5.39469e-12 -3.4231e-12 
31 -5.5074e-12 8.97264e-13 -3.79864e-12 
35 -8.99071e-12 -1.21289e-12 6.45958e-12 
39 -4.73063e-12 -1.2351e-12 -3.30785e-13 
43 -1.791e-11 -4.06488e-12 -1.71426e-12 
47 -1.27005e-11 -1.61123e-12 -7.3944e-12 
51 -7.10286e-12 -5.18378e-12 4.94108e-12 
55 -4.74454e-12 -2.749e-12 -4.77671e-14 
59 -1.26288e-11 -6.97654e-12 -3.86499e-12 
63 -1.17619e-11 -8.92032e-12 -8.4109e-12 
67 6.95817e-11 -9.15489e-11 7.13532e-11 
71 1.32064e-10 -1.78807e-10 4.12898e-11 
75 1.54798e-10 -1.89652e-10 -5.36672e-11 
79 8.3825e-11 -9.09439e-11 -6.60753e-11 
83 4.09204e-11 -1.13919e-10 7.80686e-11 
87 6.17482e-11 -2.00333e-10 5.64209e-11 
91 6.46427e-11 -2.05406e-10 -5.51527e-11 
95 3.47919e-11 -1.11466e-10 -7.55042e-11 
99 -1.09209e-12 -2.86686e-11 1.56628e-11 
103 -1.07045e-11 -9.73957e-11 1.66165e-11 
107 -1.05766e-11 -6.26803e-11 -1.35037e-11 
111 -1.34383e-11 -7.21322e-11 -4.35448e-11 
115 -8.20711e-12 -1.4803e-11 8.57962e-12 
119 -1.41649e-11 -2.93254e-11 6.50888e-12 
123 -2.05015e-11 -2.9188e-11 -5.92629e-12 
127 -6.47133e-12 -1.08715e-11 -1.06348e-11 
131 5.09706e-11 5.28462e-11 -7.43984e-11 
135 1.25419e-10 4.81472e-11 -1.6776e-10 
139 1.51471e-10 -5.35135e-11 -1.84446e-10 
143 9.61536e-11 -8.33052e-11 -1.07999e-10 
147 2.29251e-11 5.28515e-11 -7.47766e-11 
151 5.55395e-11 4.78194e-11 -1.85803e-10 
155 7.16599e-11 -5.16945e-11 -2.07594e-10 
159 3.64043e-11 -8.48435e-11 -1.15917e-10 
163 -4.25113e-12 2.5688e-11 -3.8525e-11 
167 -1.65644e-11 1.80134e-11 -9.59353e-11 
171 -1.12724e-11 -1.99574e-11 -1.11557e-10 
175 -7.46984e-12 -2.7528e-11 -3.88599e-11 
179 -7.58282e-12 8.95405e-12 -1.48084e-11 
183 -7.5871e-12 4.63948e-12 -1.82368e-11 
187 -1.67864e-11 -1.51872e-13 -2.18179e-11 
191 -7.98552e-12 -9.49184e-12 -1.66404e-11 
4 -6.03488e-12 3.70141e-12 3.21641e-12 
8 -2.40808e-12 1.12394e-12 1.27981e-13 
12 -3.35298e-12 1.08928e-12 -1.33872e-12 
16 -2.01069e-12 1.47192e-12 -1.10853e-12 
20 -9.49439e-12 3.45409e-12 9.95431e-12 
24 -7.621e-12 3.54413e-12 2.64392e-12 
28 -1.16419e-11 1.76923e-12 -3.2764e-12 
32 -3.45763e-12 1.369e-12 -1.98288e-12 
36 -7.48798e-12 -1.36267e-12 4.33544e-12 
40 -1.7e-11 -3.49192e-12 3.79068e-12 
44 -9.40845e-12 -1.41077e-12 -6.04598e-13 
48 -9.86566e-12 -8.94253e-13 -1.07693e-11 
52 -9.34213e-12 -4.9873e-12 9.1048e-12 
56 -1.61632e-11 -1.44796e-11 6.35778e-12 
60 -7.39157e-12 -7.12611e-12 -4.40386e-12 
64 -5.21297e-12 -4.32723e-12 -5.52065e-12 
68 7.52822e-11 -8.67894e-11 6.12125e-11 
72 8.99987e-11 -1.28889e-10 2.44933e-11 
76 9.2409e-11 -1.3028e-10 -2.26361e-11 
80 5.94299e-11 -9.28455e-11 -5.09323e-11 
84 2.73039e-11 -9.5604e-11 6.14259e-11 
88 7.50158e-11 -2.04828e-10 3.89727e-11 
92 3.8738e-11 -1.50478e-10 -3.39424e-11 
96 2.76628e-11 -8.21188e-11 -5.05538e-11 
100 -1.62723e-11 -6.58316e-11 4.98903e-11 
104 -1.60526e-11 -8.5996e-11 1.81284e-11 
108 -9.8166e-12 -8.78986e-11 -2.52041e-11 
112 -5.10667e-12 -3.88007e-11 -3.25101e-11 
116 -1.69958e-11 -2.55309e-11 2.61059e-11 
120 -1.63414e-11 -2.38213e-11 9.53852e-12 
124 -1.41181e-11 -2.83934e-11 -5.10715e-12 
128 -5.21926e-12 -9.37949e-12 -7.36442e-12 
132 8.52055e-11 6.47965e-11 -1.00576e-10 
136 1.22794e-10 3.77509e-11 -1.60342e-10 
140 1.03294e-10 -2.87057e-11 -1.48968e-10 
144 5.46625e-11 -4.70156e-11 -8.5936e-11 
148 4.83081e-11 8.22367e-11 -1.30903e-10 
152 6.61895e-11 4.491e-11 -1.93465e-10 
156 4.94426e-11 -4.77066e-11 -1.98507e-10 
160 2.28724e-11 -5.10713e-11 -7.35473e-11 
164 -1.06218e-11 4.83784e-11 -7.31009e-11 
168 -1.51627e-11 1.94232e-11 -9.20767e-11 
172 -1.31667e-11 -2.59821e-11 -9.44886e-11 
176 -7.45847e-12 -3.37084e-11 -5.02577e-11 
180 -1.26483e-11 1.30156e-11 -1.68857e-11 
184 -1.97223e-11 1.20793e-11 -3.11042e-11 
188 -8.49131e-12 -4.28095e-12 -2.6141e-11 
192 -1.04941e-11 -1.86458e-11 -2.54023e-11 
