ITEM: TIMESTEP
5000
ITEM: NUMBER OF SURFS
192
ITEM: BOX BOUNDS oo rr rr
0 0.0005
0 0.0005
0 0.0005
ITEM: SURFS id f_f_drag_cumul[1] f_f_drag_cumul[2] f_f_drag_cumul[3] 
1 0 0 0 
5 0 0 0 
9 0 0 0 
13 0 0 0 
17 0 0 0 
21 0 0 0 
25 0 0 0 
29 0 0 0 
33 0 0 0 
37 0 0 0 
41 0 0 0 
45 0 0 0 
49 0 0 0 
53 0 0 0 
57 0 0 0 
61 0 0 0 
65 0 0 0 
69 0 0 0 
73 0 0 0 
77 0 0 0 
81 0 0 0 
85 0 0 0 
89 0 0 0 
93 0 0 0 
97 0 0 0 
101 0 0 0 
105 0 0 0 
109 0 0 0 
113 0 0 0 
117 0 0 0 
121 0 0 0 
125 0 0 0 
129 0 0 0 
133 0 0 0 
137 0 0 0 
141 0 0 0 
145 0 0 0 
149 0 0 0 
153 0 0 0 
157 0 0 0 
161 0 0 0 
165 0 0 0 
169 0 0 0 
173 0 0 0 
177 0 0 0 
181 0 0 0 
185 0 0 0 
189 0 0 0 
2 0 0 0 
6 0 0 0 
10 0 0 0 
14 0 0 0 
18 0 0 0 
22 0 0 0 
26 0 0 0 
30 0 0 0 
34 0 0 0 
38 0 0 0 
42 0 0 0 
46 0 0 0 
50 0 0 0 
54 0 0 0 
58 0 0 0 
62 0 0 0 
66 0 0 0 
70 0 0 0 
74 0 0 0 
78 0 0 0 
82 0 0 0 
86 0 0 0 
90 0 0 0 
94 0 0 0 
98 0 0 0 
102 0 0 0 
106 0 0 0 
110 0 0 0 
114 0 0 0 
118 0 0 0 
122 0 0 0 
126 0 0 0 
130 0 0 0 
134 0 0 0 
138 0 0 0 
142 0 0 0 
146 0 0 0 
150 0 0 0 
154 0 0 0 
158 0 0 0 
162 0 0 0 
166 0 0 0 
170 0 0 0 
174 0 0 0 
178 0 0 0 
182 0 0 0 
186 0 0 0 
190 0 0 0 
3 0 0 0 
7 0 0 0 
11 0 0 0 
15 0 0 0 
19 0 0 0 
23 0 0 0 
27 0 0 0 
31 0 0 0 
35 0 0 0 
39 0 0 0 
43 0 0 0 
47 0 0 0 
51 0 0 0 
55 0 0 0 
59 0 0 0 
63 0 0 0 
67 0 0 0 
71 0 0 0 
75 0 0 0 
79 0 0 0 
83 0 0 0 
87 0 0 0 
91 0 0 0 
95 0 0 0 
99 0 0 0 
103 0 0 0 
107 0 0 0 
111 0 0 0 
115 0 0 0 
119 0 0 0 
123 0 0 0 
127 0 0 0 
131 0 0 0 
135 0 0 0 
139 0 0 0 
143 0 0 0 
147 0 0 0 
151 0 0 0 
155 0 0 0 
159 0 0 0 
163 0 0 0 
167 0 0 0 
171 0 0 0 
175 0 0 0 
179 0 0 0 
183 0 0 0 
187 0 0 0 
191 0 0 0 
4 0 0 0 
8 0 0 0 
12 0 0 0 
16 0 0 0 
20 0 0 0 
24 0 0 0 
28 0 0 0 
32 0 0 0 
36 0 0 0 
40 0 0 0 
44 0 0 0 
48 0 0 0 
52 0 0 0 
56 0 0 0 
60 0 0 0 
64 0 0 0 
68 0 0 0 
72 0 0 0 
76 0 0 0 
80 0 0 0 
84 0 0 0 
88 0 0 0 
92 0 0 0 
96 0 0 0 
100 0 0 0 
104 0 0 0 
108 0 0 0 
112 0 0 0 
116 0 0 0 
120 0 0 0 
124 0 0 0 
128 0 0 0 
132 0 0 0 
136 0 0 0 
140 0 0 0 
144 0 0 0 
148 0 0 0 
152 0 0 0 
156 0 0 0 
160 0 0 0 
164 0 0 0 
168 0 0 0 
172 0 0 0 
176 0 0 0 
180 0 0 0 
184 0 0 0 
188 0 0 0 
192 0 0 0 
ITEM: TIMESTEP
10000
ITEM: NUMBER OF SURFS
192
ITEM: BOX BOUNDS oo rr rr
0 0.0005
0 0.0005
0 0.0005
ITEM: SURFS id f_f_drag_cumul[1] f_f_drag_cumul[2] f_f_drag_cumul[3] 
1 1.11145e-10 6.8218e-11 7.91155e-11 
5 2.72519e-10 1.69809e-10 6.38759e-11 
9 2.60282e-10 1.77449e-10 -6.35879e-11 
13 1.32611e-10 1.02615e-10 -1.06233e-10 
17 2.34348e-10 4.69685e-11 1.63988e-10 
21 5.39161e-10 1.06276e-10 1.21291e-10 
25 5.41647e-10 1.23275e-10 -1.25629e-10 
29 2.82278e-10 6.3339e-11 -1.94814e-10 
33 2.05031e-10 -3.44308e-11 1.24839e-10 
37 4.64238e-10 -9.20288e-11 8.40654e-11 
41 5.29035e-10 -1.20486e-10 -9.71741e-11 
45 2.70323e-10 -6.58268e-11 -1.66412e-10 
49 1.48755e-10 -7.90213e-11 8.03843e-11 
53 2.48705e-10 -1.40616e-10 4.7733e-11 
57 2.25878e-10 -1.54001e-10 -4.2608e-11 
61 1.37866e-10 -9.56526e-11 -7.92405e-11 
65 5.93521e-11 7.56044e-11 6.01179e-11 
69 1.22588e-10 1.75548e-10 4.24284e-11 
73 1.49318e-10 1.86582e-10 -5.25936e-11 
77 9.37183e-11 9.95649e-11 -8.06444e-11 
81 2.51401e-11 8.78085e-11 6.2374e-11 
85 5.54972e-11 1.81108e-10 4.83919e-11 
89 6.27434e-11 2.29804e-10 -5.67685e-11 
93 3.94661e-11 1.08821e-10 -7.74624e-11 
97 -6.4983e-12 4.96492e-11 3.57516e-11 
101 -8.69297e-12 8.93276e-11 1.82976e-11 
105 -1.92747e-11 1.00059e-10 -2.54167e-11 
109 -7.86024e-12 6.10544e-11 -4.30768e-11 
113 -7.77981e-12 1.65846e-11 1.08553e-11 
117 -9.09277e-12 1.85958e-11 1.96529e-12 
121 -1.39315e-11 2.15701e-11 -2.11883e-12 
125 -8.72583e-12 1.11613e-11 -6.87775e-12 
129 6.31554e-11 6.54824e-11 8.61174e-11 
133 1.19663e-10 4.43589e-11 1.66662e-10 
137 1.47575e-10 -5.23849e-11 1.92022e-10 
141 9.95741e-11 -8.47007e-11 1.04685e-10 
145 2.78265e-11 6.22791e-11 9.32012e-11 
149 5.69304e-11 4.26481e-11 1.88296e-10 
153 6.87372e-11 -6.07032e-11 2.2856e-10 
157 3.60821e-11 -7.35044e-11 1.03896e-10 
161 -7.95083e-12 2.75722e-11 4.214e-11 
165 -8.71321e-12 1.53027e-11 8.20901e-11 
169 -1.47209e-11 -2.27207e-11 9.7586e-11 
173 -1.05756e-11 -3.61465e-11 5.50978e-11 
177 -8.78508e-12 1.12834e-11 1.92133e-11 
181 -9.74112e-12 3.16368e-12 1.76485e-11 
185 -1.51719e-11 -6.5561e-12 2.3519e-11 
189 -7.38078e-12 -7.50651e-12 1.2137e-11 
2 9.33753e-11 6.527e-11 5.74006e-11 
6 2.11343e-10 1.39963e-10 4.45735e-11 
10 1.94147e-10 1.09167e-10 -3.98867e-11 
14 1.25461e-10 7.17774e-11 -7.22393e-11 
18 2.75958e-10 6.39405e-11 1.71656e-10 
22 5.35028e-10 1.12005e-10 1.15175e-10 
26 5.07458e-10 9.65821e-11 -1.06605e-10 
30 2.0921e-10 3.91353e-11 -1.2698e-10 
34 2.55829e-10 -6.18776e-11 1.77207e-10 
38 5.60778e-10 -1.20349e-10 1.35476e-10 
42 4.85062e-10 -9.93312e-11 -1.15484e-10 
46 2.11777e-10 -3.50178e-11 -1.39506e-10 
50 1.40724e-10 -1.06843e-10 1.14556e-10 
54 2.70145e-10 -1.88233e-10 6.97621e-11 
58 2.5167e-10 -1.49526e-10 -5.59459e-11 
62 1.12966e-10 -6.88277e-11 -8.38191e-11 
66 8.611e-11 9.87152e-11 6.73029e-11 
70 1.12799e-10 1.43705e-10 3.44204e-11 
74 1.0159e-10 1.40936e-10 -3.23465e-11 
78 5.20979e-11 7.55066e-11 -4.43762e-11 
82 3.46558e-11 1.10926e-10 6.98382e-11 
86 6.11372e-11 1.87998e-10 4.10121e-11 
90 5.98921e-11 2.266e-10 -4.54223e-11 
94 1.99275e-11 8.51175e-11 -5.09673e-11 
98 -1.36382e-11 6.92757e-11 5.09628e-11 
102 -2.15752e-11 1.30624e-10 3.29319e-11 
106 -1.10963e-11 7.7078e-11 -1.74618e-11 
110 -5.29907e-12 4.40676e-11 -3.3053e-11 
114 -1.08965e-11 1.79734e-11 1.22523e-11 
118 -1.61244e-11 2.52959e-11 6.77666e-12 
122 -1.70961e-11 2.65919e-11 -5.7786e-12 
126 -7.22574e-12 1.16513e-11 -1.08257e-11 
130 9.88135e-11 7.01458e-11 1.11934e-10 
134 1.43886e-10 3.6582e-11 1.91892e-10 
138 9.66519e-11 -2.32682e-11 1.36126e-10 
142 4.62092e-11 -3.87436e-11 7.071e-11 
146 4.27807e-11 8.34024e-11 1.24689e-10 
150 6.44653e-11 3.94342e-11 2.04884e-10 
154 4.82059e-11 -4.06892e-11 1.71005e-10 
158 2.48616e-11 -5.69542e-11 8.26336e-11 
162 -7.77006e-12 3.86077e-11 5.6109e-11 
166 -1.15964e-11 2.16154e-11 9.97087e-11 
170 -1.80892e-11 -2.57032e-11 1.16435e-10 
174 -2.99188e-12 -3.36385e-11 5.09352e-11 
178 -8.61271e-12 1.13205e-11 1.21625e-11 
182 -1.24706e-11 6.23241e-12 2.36543e-11 
186 -1.39116e-11 -5.90099e-12 2.60369e-11 
190 -8.73484e-12 -1.37225e-11 1.8377e-11 
3 -1.11935e-11 7.16578e-12 7.37602e-12 
7 -9.06444e-12 9.35695e-12 3.32473e-12 
11 -7.9833e-12 7.57526e-12 -2.34953e-12 
15 -1.64947e-11 1.16552e-11 -1.32482e-11 
19 -1.22849e-11 8.09506e-13 9.64419e-12 
23 -1.26214e-11 3.21735e-12 4.72647e-12 
27 -1.01805e-11 2.99249e-12 -4.1822e-12 
31 -1.00519e-11 3.91384e-12 -7.82872e-12 
35 -7.3473e-12 -1.95733e-12 6.66532e-12 
39 -1.23647e-11 -3.02873e-12 1.0611e-12 
43 -6.89979e-12 -5.32495e-13 -9.57622e-13 
47 -4.06978e-12 -8.87055e-13 -2.70652e-12 
51 -4.94789e-12 -2.58353e-12 5.20161e-12 
55 -6.51049e-12 -6.31122e-12 1.33028e-12 
59 -7.90084e-12 -6.76807e-12 3.45688e-13 
63 -3.94669e-12 -2.71359e-12 -3.52327e-12 
67 6.72725e-11 -9.41814e-11 7.43752e-11 
71 1.1877e-10 -1.65324e-10 4.27624e-11 
75 1.44399e-10 -1.82701e-10 -4.37292e-11 
79 8.01349e-11 -8.95371e-11 -6.99842e-11 
83 1.97618e-11 -7.40589e-11 5.07286e-11 
87 4.78652e-11 -1.7558e-10 4.51608e-11 
91 7.38809e-11 -2.52303e-10 -5.50225e-11 
95 4.11772e-11 -1.13604e-10 -7.95803e-11 
99 -4.51881e-12 -3.74225e-11 2.55585e-11 
103 -7.01403e-12 -7.28028e-11 1.87341e-11 
107 -1.82854e-11 -1.03488e-10 -2.09368e-11 
111 -7.97341e-12 -5.09113e-11 -3.31158e-11 
115 -7.97816e-12 -1.72165e-11 9.5149e-12 
119 -1.2404e-11 -2.5908e-11 2.72739e-12 
123 -1.22268e-11 -2.02645e-11 -4.47234e-12 
127 -8.22922e-12 -1.14412e-11 -8.97265e-12 
131 5.64092e-11 6.04119e-11 -7.16436e-11 
135 1.32843e-10 4.63118e-11 -1.92419e-10 
139 1.46092e-10 -4.17848e-11 -1.87586e-10 
143 8.87083e-11 -7.90148e-11 -9.3206e-11 
147 2.34956e-11 6.07612e-11 -8.91949e-11 
151 5.48064e-11 4.61773e-11 -1.96307e-10 
155 6.96988e-11 -5.09696e-11 -2.29323e-10 
159 3.37001e-11 -7.37743e-11 -9.83733e-11 
163 -6.04643e-12 3.0201e-11 -4.51578e-11 
167 -1.54808e-11 1.53667e-11 -9.13788e-11 
171 -1.02186e-11 -1.25129e-11 -7.98905e-11 
175 -7.10798e-12 -3.64292e-11 -5.00827e-11 
179 -7.68806e-12 9.08271e-12 -1.87057e-11 
183 -1.00882e-11 5.08764e-12 -1.68673e-11 
187 -1.30292e-11 -4.70962e-12 -2.39611e-11 
191 -8.23219e-12 -8.49197e-12 -1.44094e-11 
4 -4.77253e-12 4.36729e-12 4.06488e-12 
8 -1.10047e-11 1.00858e-11 2.13076e-12 
12 -8.52361e-12 7.95381e-12 -1.43345e-12 
16 -1.06205e-11 5.44609e-12 -6.32187e-12 
20 -1.18187e-11 2.83603e-12 1.11066e-11 
24 -1.34835e-11 4.0448e-12 4.0422e-12 
28 -1.00308e-11 3.21505e-12 -2.90513e-12 
32 -6.9449e-12 1.70244e-12 -6.10068e-12 
36 -8.0817e-12 -1.8575e-12 5.89939e-12 
40 -1.30911e-11 -6.4891e-12 2.15397e-12 
44 -1.0314e-11 -2.66749e-12 -2.18416e-12 
48 -1.01298e-11 -2.35768e-12 -8.55229e-12 
52 -8.56482e-12 -9.14828e-12 9.38343e-12 
56 -7.3308e-12 -5.51136e-12 2.96328e-12 
60 -7.12335e-12 -5.36127e-12 -1.27065e-12 
64 -5.49895e-12 -6.30691e-12 -7.33084e-12 
68 6.53511e-11 -7.66297e-11 5.06635e-11 
72 1.20544e-10 -1.54044e-10 3.23355e-11 
76 1.00871e-10 -1.41041e-10 -2.90219e-11 
80 5.76874e-11 -8.35725e-11 -4.82088e-11 
84 4.20441e-11 -1.17566e-10 7.95763e-11 
88 5.53816e-11 -2.10268e-10 3.68903e-11 
92 5.06553e-11 -1.68698e-10 -3.62937e-11 
96 2.7753e-11 -9.76293e-11 -5.94344e-11 
100 -1.23283e-11 -6.02961e-11 3.88559e-11 
104 -1.63154e-11 -9.94331e-11 2.50576e-11 
108 -9.60924e-12 -8.49785e-11 -1.8293e-11 
112 -4.1075e-12 -5.83037e-11 -4.20399e-11 
116 -9.66937e-12 -1.54307e-11 1.27023e-11 
120 -1.62926e-11 -2.44337e-11 7.71833e-12 
124 -1.73486e-11 -3.09576e-11 -6.72611e-12 
128 -6.22429e-12 -1.27898e-11 -1.08989e-11 
132 9.15205e-11 6.69876e-11 -1.0699e-10 
136 1.13024e-10 2.95088e-11 -1.46777e-10 
140 1.07188e-10 -2.9439e-11 -1.52109e-10 
144 4.76635e-11 -4.45153e-11 -7.5684e-11 
148 3.96415e-11 7.57446e-11 -1.20424e-10 
152 6.5841e-11 4.1615e-11 -1.93401e-10 
156 5.82e-11 -3.98462e-11 -2.04917e-10 
160 1.9747e-11 -5.39594e-11 -8.16391e-11 
164 -5.62739e-12 3.173e-11 -4.32971e-11 
168 -1.28498e-11 1.90589e-11 -8.79705e-11 
172 -1.6026e-11 -2.33806e-11 -1.02891e-10 
176 -5.37683e-12 -3.77881e-11 -5.51052e-11 
180 -1.19632e-11 1.36157e-11 -1.52602e-11 
184 -1.73103e-11 5.62639e-12 -2.81946e-11 
188 -1.38953e-11 -6.14642e-12 -2.50271e-11 
192 -1.17182e-11 -1.57984e-11 -1.87206e-11 
