ITEM: TIMESTEP
2500
ITEM: NUMBER OF SURFS
192
ITEM: BOX BOUNDS oo rr rr
0 0.0005
0 0.0005
0 0.0005
ITEM: SURFS id f_f_drag_cumul[1] f_f_drag_cumul[2] f_f_drag_cumul[3] 
1 0 0 0 
5 0 0 0 
9 0 0 0 
13 0 0 0 
17 0 0 0 
21 0 0 0 
25 0 0 0 
29 0 0 0 
33 0 0 0 
37 0 0 0 
41 0 0 0 
45 0 0 0 
49 0 0 0 
53 0 0 0 
57 0 0 0 
61 0 0 0 
65 0 0 0 
69 0 0 0 
73 0 0 0 
77 0 0 0 
81 0 0 0 
85 0 0 0 
89 0 0 0 
93 0 0 0 
97 0 0 0 
101 0 0 0 
105 0 0 0 
109 0 0 0 
113 0 0 0 
117 0 0 0 
121 0 0 0 
125 0 0 0 
129 0 0 0 
133 0 0 0 
137 0 0 0 
141 0 0 0 
145 0 0 0 
149 0 0 0 
153 0 0 0 
157 0 0 0 
161 0 0 0 
165 0 0 0 
169 0 0 0 
173 0 0 0 
177 0 0 0 
181 0 0 0 
185 0 0 0 
189 0 0 0 
2 0 0 0 
6 0 0 0 
10 0 0 0 
14 0 0 0 
18 0 0 0 
22 0 0 0 
26 0 0 0 
30 0 0 0 
34 0 0 0 
38 0 0 0 
42 0 0 0 
46 0 0 0 
50 0 0 0 
54 0 0 0 
58 0 0 0 
62 0 0 0 
66 0 0 0 
70 0 0 0 
74 0 0 0 
78 0 0 0 
82 0 0 0 
86 0 0 0 
90 0 0 0 
94 0 0 0 
98 0 0 0 
102 0 0 0 
106 0 0 0 
110 0 0 0 
114 0 0 0 
118 0 0 0 
122 0 0 0 
126 0 0 0 
130 0 0 0 
134 0 0 0 
138 0 0 0 
142 0 0 0 
146 0 0 0 
150 0 0 0 
154 0 0 0 
158 0 0 0 
162 0 0 0 
166 0 0 0 
170 0 0 0 
174 0 0 0 
178 0 0 0 
182 0 0 0 
186 0 0 0 
190 0 0 0 
3 0 0 0 
7 0 0 0 
11 0 0 0 
15 0 0 0 
19 0 0 0 
23 0 0 0 
27 0 0 0 
31 0 0 0 
35 0 0 0 
39 0 0 0 
43 0 0 0 
47 0 0 0 
51 0 0 0 
55 0 0 0 
59 0 0 0 
63 0 0 0 
67 0 0 0 
71 0 0 0 
75 0 0 0 
79 0 0 0 
83 0 0 0 
87 0 0 0 
91 0 0 0 
95 0 0 0 
99 0 0 0 
103 0 0 0 
107 0 0 0 
111 0 0 0 
115 0 0 0 
119 0 0 0 
123 0 0 0 
127 0 0 0 
131 0 0 0 
135 0 0 0 
139 0 0 0 
143 0 0 0 
147 0 0 0 
151 0 0 0 
155 0 0 0 
159 0 0 0 
163 0 0 0 
167 0 0 0 
171 0 0 0 
175 0 0 0 
179 0 0 0 
183 0 0 0 
187 0 0 0 
191 0 0 0 
4 0 0 0 
8 0 0 0 
12 0 0 0 
16 0 0 0 
20 0 0 0 
24 0 0 0 
28 0 0 0 
32 0 0 0 
36 0 0 0 
40 0 0 0 
44 0 0 0 
48 0 0 0 
52 0 0 0 
56 0 0 0 
60 0 0 0 
64 0 0 0 
68 0 0 0 
72 0 0 0 
76 0 0 0 
80 0 0 0 
84 0 0 0 
88 0 0 0 
92 0 0 0 
96 0 0 0 
100 0 0 0 
104 0 0 0 
108 0 0 0 
112 0 0 0 
116 0 0 0 
120 0 0 0 
124 0 0 0 
128 0 0 0 
132 0 0 0 
136 0 0 0 
140 0 0 0 
144 0 0 0 
148 0 0 0 
152 0 0 0 
156 0 0 0 
160 0 0 0 
164 0 0 0 
168 0 0 0 
172 0 0 0 
176 0 0 0 
180 0 0 0 
184 0 0 0 
188 0 0 0 
192 0 0 0 
ITEM: TIMESTEP
5000
ITEM: NUMBER OF SURFS
192
ITEM: BOX BOUNDS oo rr rr
0 0.0005
0 0.0005
0 0.0005
ITEM: SURFS id f_f_drag_cumul[1] f_f_drag_cumul[2] f_f_drag_cumul[3] 
1 1.27328e-10 7.3214e-11 8.90738e-11 
5 2.27347e-10 1.32979e-10 5.59996e-11 
9 2.66211e-10 1.80307e-10 -6.00072e-11 
13 1.16046e-10 9.49252e-11 -8.82102e-11 
17 1.76505e-10 3.87936e-11 1.15396e-10 
21 5.8073e-10 1.21784e-10 1.26576e-10 
25 5.52587e-10 1.2871e-10 -1.18582e-10 
29 2.95433e-10 6.93067e-11 -1.92952e-10 
33 2.11396e-10 -4.03262e-11 1.25308e-10 
37 4.70686e-10 -9.7542e-11 9.20196e-11 
41 4.99373e-10 -1.10689e-10 -1.04071e-10 
45 2.61518e-10 -5.9733e-11 -1.58949e-10 
49 1.24503e-10 -6.22918e-11 6.19339e-11 
53 1.97886e-10 -1.19544e-10 3.6635e-11 
57 2.12086e-10 -1.44815e-10 -4.3636e-11 
61 1.35237e-10 -1.01725e-10 -7.8981e-11 
65 6.34244e-11 8.60521e-11 6.85645e-11 
69 1.15345e-10 1.64972e-10 4.35951e-11 
73 1.46571e-10 1.87333e-10 -4.48794e-11 
77 9.05855e-11 1.00122e-10 -8.15672e-11 
81 2.5369e-11 7.97322e-11 5.93008e-11 
85 5.64144e-11 1.97696e-10 4.21413e-11 
89 6.81331e-11 2.22996e-10 -4.7021e-11 
93 4.24209e-11 1.2459e-10 -8.86526e-11 
97 -3.31348e-12 5.13966e-11 3.50482e-11 
101 -8.86214e-12 8.2348e-11 1.56924e-11 
105 -1.09295e-11 9.63796e-11 -2.20156e-11 
109 -1.01874e-11 5.78523e-11 -3.92402e-11 
113 -8.87908e-12 2.06096e-11 1.00323e-11 
117 -9.29724e-12 1.8002e-11 2.78098e-12 
121 -1.16268e-11 1.67135e-11 -1.76681e-12 
125 -1.07753e-11 1.74279e-11 -9.24602e-12 
129 5.75261e-11 6.02951e-11 7.91611e-11 
133 1.18595e-10 4.47875e-11 1.70112e-10 
137 1.66874e-10 -5.39585e-11 2.0846e-10 
141 8.68667e-11 -8.01937e-11 9.5471e-11 
145 2.64751e-11 5.86866e-11 8.60528e-11 
149 5.33371e-11 4.17131e-11 1.92232e-10 
153 7.34528e-11 -5.87828e-11 2.3063e-10 
157 3.525e-11 -6.94949e-11 1.0219e-10 
161 -3.90313e-12 3.78414e-11 5.42626e-11 
165 -1.09748e-11 2.11277e-11 8.68652e-11 
169 -1.06039e-11 -2.04904e-11 9.85618e-11 
173 -5.22007e-12 -3.36518e-11 5.34634e-11 
177 -8.31555e-12 1.03386e-11 2.06838e-11 
181 -1.29502e-11 3.76295e-12 2.21629e-11 
185 -8.45529e-12 -3.42211e-12 1.49995e-11 
189 -6.8223e-12 -8.82983e-12 1.22742e-11 
2 1.3134e-10 9.36707e-11 8.15005e-11 
6 1.9718e-10 1.36046e-10 4.16086e-11 
10 2.22683e-10 1.32185e-10 -4.09652e-11 
14 1.39923e-10 7.87616e-11 -8.05924e-11 
18 2.46467e-10 6.26112e-11 1.50399e-10 
22 4.90786e-10 1.06914e-10 9.86072e-11 
26 4.47878e-10 8.83145e-11 -9.21739e-11 
30 2.0154e-10 3.28204e-11 -1.23215e-10 
34 2.57842e-10 -6.21839e-11 1.72844e-10 
38 5.78565e-10 -1.31412e-10 1.24062e-10 
42 5.94494e-10 -1.19716e-10 -1.35924e-10 
46 2.10545e-10 -4.24048e-11 -1.43394e-10 
50 1.42344e-10 -1.06565e-10 1.03921e-10 
54 2.90298e-10 -1.94009e-10 6.49926e-11 
58 2.69523e-10 -1.59426e-10 -6.5213e-11 
62 1.10116e-10 -6.80564e-11 -7.44189e-11 
66 7.42515e-11 8.74822e-11 5.17533e-11 
70 1.11917e-10 1.47553e-10 3.05366e-11 
74 1.06757e-10 1.4557e-10 -2.76396e-11 
78 4.97656e-11 8.23523e-11 -5.08996e-11 
82 3.57192e-11 9.39722e-11 6.56495e-11 
86 5.70395e-11 1.91248e-10 4.292e-11 
90 4.94051e-11 1.79407e-10 -3.72472e-11 
94 2.16881e-11 7.70023e-11 -4.74001e-11 
98 -7.28248e-12 5.52978e-11 3.73372e-11 
102 -1.68578e-11 1.16645e-10 2.92841e-11 
106 -1.28467e-11 9.62476e-11 -2.29229e-11 
110 -7.38039e-12 6.32982e-11 -4.38052e-11 
114 -1.05887e-11 1.54351e-11 1.16899e-11 
118 -1.59936e-11 2.99839e-11 7.78746e-12 
122 -1.42708e-11 2.48095e-11 -5.7295e-12 
126 -8.85018e-12 1.96286e-11 -1.34481e-11 
130 9.13049e-11 6.75424e-11 1.06167e-10 
134 1.32167e-10 3.67199e-11 1.65438e-10 
138 9.24359e-11 -2.69913e-11 1.31901e-10 
142 4.71025e-11 -4.46711e-11 7.13639e-11 
146 3.56243e-11 7.39459e-11 1.19222e-10 
150 6.3956e-11 4.3936e-11 2.00778e-10 
154 5.71296e-11 -4.47845e-11 1.99058e-10 
158 2.57236e-11 -5.78067e-11 9.11829e-11 
162 -8.27862e-12 4.325e-11 6.4211e-11 
166 -1.74031e-11 2.1985e-11 1.06313e-10 
170 -1.36614e-11 -2.20232e-11 1.09843e-10 
174 -6.69466e-12 -4.13087e-11 5.92367e-11 
178 -9.78065e-12 1.23402e-11 1.55153e-11 
182 -1.64524e-11 5.51626e-12 2.36339e-11 
186 -1.16261e-11 -8.3604e-12 2.65754e-11 
190 -1.17695e-11 -1.44107e-11 2.13478e-11 
3 -7.35017e-12 4.58934e-12 6.79289e-12 
7 -7.6615e-12 5.78179e-12 2.99475e-12 
11 -7.9273e-12 8.07263e-12 -2.74569e-12 
15 -1.0024e-11 1.10743e-11 -1.18021e-11 
19 -8.84619e-12 8.5792e-13 7.53183e-12 
23 -6.80825e-12 2.03097e-12 8.2368e-13 
27 -1.58246e-11 3.27795e-12 -3.61179e-12 
31 -5.24189e-12 8.66878e-13 -4.85872e-12 
35 -8.84087e-12 -1.38197e-12 6.46253e-12 
39 -8.8654e-12 -2.25503e-12 8.36402e-13 
43 -1.5112e-11 -4.13857e-12 -2.89114e-12 
47 -1.14213e-11 -3.15959e-12 -7.00016e-12 
51 -5.26093e-12 -3.92653e-12 3.9554e-12 
55 -4.49853e-12 -3.56073e-12 8.87644e-13 
59 -1.20626e-11 -7.62586e-12 -2.87378e-12 
63 -1.13445e-11 -9.11217e-12 -8.92349e-12 
67 5.7639e-11 -8.03944e-11 6.05674e-11 
71 1.24642e-10 -1.75037e-10 4.00278e-11 
75 1.50655e-10 -1.87033e-10 -4.94747e-11 
79 7.71676e-11 -8.38581e-11 -7.05163e-11 
83 3.17364e-11 -1.00971e-10 7.19771e-11 
87 5.22845e-11 -1.80163e-10 5.02232e-11 
91 7.37705e-11 -2.20187e-10 -5.14958e-11 
95 4.24069e-11 -1.21472e-10 -8.61134e-11 
99 -6.6204e-12 -5.01889e-11 3.1495e-11 
103 -1.34001e-11 -9.94199e-11 2.12294e-11 
107 -1.74121e-11 -9.02203e-11 -2.35259e-11 
111 -1.10751e-11 -7.09905e-11 -4.75161e-11 
115 -7.32385e-12 -1.56721e-11 9.06579e-12 
119 -1.29344e-11 -2.59282e-11 6.85602e-12 
123 -1.53395e-11 -2.33139e-11 -5.01918e-12 
127 -6.13513e-12 -1.07747e-11 -7.01714e-12 
131 5.61683e-11 5.90444e-11 -7.92089e-11 
135 1.26635e-10 4.60263e-11 -1.77471e-10 
139 1.4426e-10 -4.99073e-11 -1.8368e-10 
143 8.69866e-11 -7.73061e-11 -9.8503e-11 
147 2.70826e-11 5.21404e-11 -8.09917e-11 
151 5.40353e-11 4.92915e-11 -1.97807e-10 
155 7.45215e-11 -5.24878e-11 -2.29544e-10 
159 3.60946e-11 -8.82044e-11 -1.16956e-10 
163 -5.7548e-12 3.12909e-11 -5.04277e-11 
167 -1.67873e-11 2.09146e-11 -1.01834e-10 
171 -1.08631e-11 -1.81886e-11 -9.76775e-11 
175 -7.72611e-12 -3.16568e-11 -4.91418e-11 
179 -7.4894e-12 7.67452e-12 -1.54423e-11 
183 -1.14471e-11 5.93015e-12 -2.48175e-11 
187 -1.42402e-11 -2.09932e-12 -2.09067e-11 
191 -1.05231e-11 -9.012e-12 -1.65381e-11 
4 -7.48567e-12 5.94436e-12 3.69806e-12 
8 -5.41574e-12 5.6571e-12 2.25855e-12 
12 -4.9817e-12 2.13345e-12 -1.9037e-12 
16 -4.70517e-12 3.51689e-12 -2.7536e-12 
20 -9.4217e-12 1.82746e-12 9.2585e-12 
24 -9.4783e-12 2.32719e-12 2.86761e-12 
28 -1.1018e-11 2.70261e-12 -3.54768e-12 
32 -4.44964e-12 1.17992e-12 -2.95943e-12 
36 -1.01959e-11 -2.88113e-12 7.15245e-12 
40 -2.05141e-11 -5.96043e-12 5.02097e-12 
44 -1.07988e-11 -2.79251e-12 -2.4253e-12 
48 -1.10949e-11 -1.47556e-12 -1.16508e-11 
52 -9.47377e-12 -6.03546e-12 6.91661e-12 
56 -1.35188e-11 -1.12837e-11 2.87268e-12 
60 -8.60105e-12 -7.36525e-12 -2.80723e-12 
64 -5.78363e-12 -4.68119e-12 -4.61546e-12 
68 7.88524e-11 -9.16511e-11 5.97991e-11 
72 1.00547e-10 -1.32179e-10 2.40396e-11 
76 9.76778e-11 -1.34667e-10 -2.23054e-11 
80 4.72764e-11 -7.52846e-11 -4.02927e-11 
84 3.29022e-11 -1.0014e-10 6.45885e-11 
88 6.84114e-11 -2.13461e-10 4.30043e-11 
92 4.60944e-11 -1.67164e-10 -3.93855e-11 
96 2.17991e-11 -6.78871e-11 -4.07635e-11 
100 -1.38685e-11 -5.66993e-11 4.517e-11 
104 -1.41533e-11 -9.80644e-11 2.15272e-11 
108 -1.51877e-11 -1.0231e-10 -2.31983e-11 
112 -5.61642e-12 -4.58721e-11 -3.09072e-11 
116 -1.6002e-11 -2.17497e-11 2.12871e-11 
120 -1.80948e-11 -2.5864e-11 8.99392e-12 
124 -1.90502e-11 -3.37507e-11 -7.32424e-12 
128 -5.61028e-12 -1.25623e-11 -1.01151e-11 
132 7.63633e-11 5.71896e-11 -9.27809e-11 
136 1.35777e-10 3.81531e-11 -1.77798e-10 
140 9.78789e-11 -2.92575e-11 -1.38299e-10 
144 5.17724e-11 -4.81591e-11 -8.22665e-11 
148 3.65304e-11 7.1515e-11 -1.13211e-10 
152 6.49394e-11 4.69663e-11 -2.03816e-10 
156 5.3539e-11 -4.267e-11 -1.92834e-10 
160 2.46044e-11 -5.081e-11 -8.16841e-11 
164 -1.20285e-11 4.07367e-11 -6.41214e-11 
168 -1.32434e-11 1.93328e-11 -9.59292e-11 
172 -1.29168e-11 -2.61846e-11 -1.02397e-10 
176 -5.65801e-12 -3.68958e-11 -5.06994e-11 
180 -1.3805e-11 1.42019e-11 -1.74362e-11 
184 -1.98128e-11 9.6498e-12 -3.44445e-11 
188 -1.08331e-11 -4.44107e-12 -2.05663e-11 
192 -7.81162e-12 -1.22187e-11 -1.79425e-11 
