ITEM: TIMESTEP
10000
ITEM: NUMBER OF SURFS
192
ITEM: BOX BOUNDS oo rr rr
0 0.0005
0 0.0005
0 0.0005
ITEM: SURFS id f_f_drag_cumul[1] f_f_drag_cumul[2] f_f_drag_cumul[3] 
1 0 0 0 
5 0 0 0 
9 0 0 0 
13 0 0 0 
17 0 0 0 
21 0 0 0 
25 0 0 0 
29 0 0 0 
33 0 0 0 
37 0 0 0 
41 0 0 0 
45 0 0 0 
49 0 0 0 
53 0 0 0 
57 0 0 0 
61 0 0 0 
65 0 0 0 
69 0 0 0 
73 0 0 0 
77 0 0 0 
81 0 0 0 
85 0 0 0 
89 0 0 0 
93 0 0 0 
97 0 0 0 
101 0 0 0 
105 0 0 0 
109 0 0 0 
113 0 0 0 
117 0 0 0 
121 0 0 0 
125 0 0 0 
129 0 0 0 
133 0 0 0 
137 0 0 0 
141 0 0 0 
145 0 0 0 
149 0 0 0 
153 0 0 0 
157 0 0 0 
161 0 0 0 
165 0 0 0 
169 0 0 0 
173 0 0 0 
177 0 0 0 
181 0 0 0 
185 0 0 0 
189 0 0 0 
2 0 0 0 
6 0 0 0 
10 0 0 0 
14 0 0 0 
18 0 0 0 
22 0 0 0 
26 0 0 0 
30 0 0 0 
34 0 0 0 
38 0 0 0 
42 0 0 0 
46 0 0 0 
50 0 0 0 
54 0 0 0 
58 0 0 0 
62 0 0 0 
66 0 0 0 
70 0 0 0 
74 0 0 0 
78 0 0 0 
82 0 0 0 
86 0 0 0 
90 0 0 0 
94 0 0 0 
98 0 0 0 
102 0 0 0 
106 0 0 0 
110 0 0 0 
114 0 0 0 
118 0 0 0 
122 0 0 0 
126 0 0 0 
130 0 0 0 
134 0 0 0 
138 0 0 0 
142 0 0 0 
146 0 0 0 
150 0 0 0 
154 0 0 0 
158 0 0 0 
162 0 0 0 
166 0 0 0 
170 0 0 0 
174 0 0 0 
178 0 0 0 
182 0 0 0 
186 0 0 0 
190 0 0 0 
3 0 0 0 
7 0 0 0 
11 0 0 0 
15 0 0 0 
19 0 0 0 
23 0 0 0 
27 0 0 0 
31 0 0 0 
35 0 0 0 
39 0 0 0 
43 0 0 0 
47 0 0 0 
51 0 0 0 
55 0 0 0 
59 0 0 0 
63 0 0 0 
67 0 0 0 
71 0 0 0 
75 0 0 0 
79 0 0 0 
83 0 0 0 
87 0 0 0 
91 0 0 0 
95 0 0 0 
99 0 0 0 
103 0 0 0 
107 0 0 0 
111 0 0 0 
115 0 0 0 
119 0 0 0 
123 0 0 0 
127 0 0 0 
131 0 0 0 
135 0 0 0 
139 0 0 0 
143 0 0 0 
147 0 0 0 
151 0 0 0 
155 0 0 0 
159 0 0 0 
163 0 0 0 
167 0 0 0 
171 0 0 0 
175 0 0 0 
179 0 0 0 
183 0 0 0 
187 0 0 0 
191 0 0 0 
4 0 0 0 
8 0 0 0 
12 0 0 0 
16 0 0 0 
20 0 0 0 
24 0 0 0 
28 0 0 0 
32 0 0 0 
36 0 0 0 
40 0 0 0 
44 0 0 0 
48 0 0 0 
52 0 0 0 
56 0 0 0 
60 0 0 0 
64 0 0 0 
68 0 0 0 
72 0 0 0 
76 0 0 0 
80 0 0 0 
84 0 0 0 
88 0 0 0 
92 0 0 0 
96 0 0 0 
100 0 0 0 
104 0 0 0 
108 0 0 0 
112 0 0 0 
116 0 0 0 
120 0 0 0 
124 0 0 0 
128 0 0 0 
132 0 0 0 
136 0 0 0 
140 0 0 0 
144 0 0 0 
148 0 0 0 
152 0 0 0 
156 0 0 0 
160 0 0 0 
164 0 0 0 
168 0 0 0 
172 0 0 0 
176 0 0 0 
180 0 0 0 
184 0 0 0 
188 0 0 0 
192 0 0 0 
ITEM: TIMESTEP
20000
ITEM: NUMBER OF SURFS
192
ITEM: BOX BOUNDS oo rr rr
0 0.0005
0 0.0005
0 0.0005
ITEM: SURFS id f_f_drag_cumul[1] f_f_drag_cumul[2] f_f_drag_cumul[3] 
1 1.17745e-10 7.10988e-11 8.18445e-11 
5 2.49455e-10 1.56865e-10 6.57887e-11 
9 2.4761e-10 1.71646e-10 -6.30738e-11 
13 1.11995e-10 8.35673e-11 -8.78636e-11 
17 2.26958e-10 3.92057e-11 1.50789e-10 
21 5.52529e-10 1.19169e-10 1.29572e-10 
25 5.76844e-10 1.33566e-10 -1.32528e-10 
29 2.7862e-10 6.9298e-11 -1.88496e-10 
33 2.11659e-10 -3.85078e-11 1.24913e-10 
37 4.88281e-10 -1.01924e-10 9.52231e-11 
41 5.47604e-10 -1.23251e-10 -1.00085e-10 
45 2.58103e-10 -6.66221e-11 -1.57416e-10 
49 1.27151e-10 -6.71062e-11 6.80985e-11 
53 1.92259e-10 -1.22547e-10 3.55461e-11 
57 2.17954e-10 -1.45776e-10 -4.98359e-11 
61 1.22325e-10 -8.72733e-11 -7.15836e-11 
65 6.15802e-11 8.31313e-11 6.12372e-11 
69 1.31528e-10 1.72453e-10 4.75008e-11 
73 1.49099e-10 1.90309e-10 -4.57811e-11 
77 1.00777e-10 1.1697e-10 -9.52631e-11 
81 3.10291e-11 1.01637e-10 7.28184e-11 
85 6.29779e-11 2.14901e-10 4.77674e-11 
89 6.67311e-11 2.27309e-10 -5.41216e-11 
93 3.9383e-11 1.19571e-10 -8.28391e-11 
97 -5.54677e-12 4.22202e-11 2.671e-11 
101 -8.93343e-12 7.5231e-11 1.58446e-11 
105 -1.37625e-11 9.23699e-11 -2.36323e-11 
109 -8.82908e-12 5.34355e-11 -3.94196e-11 
113 -1.11267e-11 2.05014e-11 1.20607e-11 
117 -1.41453e-11 2.49647e-11 4.05702e-12 
121 -8.96257e-12 1.6391e-11 -3.93051e-12 
125 -9.70029e-12 1.64778e-11 -1.01915e-11 
129 5.99386e-11 6.10736e-11 8.21935e-11 
133 1.10565e-10 3.44463e-11 1.5669e-10 
137 1.46506e-10 -4.85612e-11 1.80356e-10 
141 9.15619e-11 -8.54535e-11 1.03115e-10 
145 2.94739e-11 7.09512e-11 9.0178e-11 
149 6.39944e-11 5.35891e-11 2.15427e-10 
153 6.3016e-11 -5.68016e-11 2.02758e-10 
157 4.34905e-11 -8.55968e-11 1.24948e-10 
161 -6.1226e-12 3.43077e-11 5.23154e-11 
165 -1.40487e-11 2.17127e-11 1.04552e-10 
169 -7.94548e-12 -2.26353e-11 8.49264e-11 
173 -8.36296e-12 -4.14971e-11 5.95744e-11 
177 -8.82133e-12 1.01141e-11 1.83416e-11 
181 -1.21784e-11 2.26644e-12 1.90918e-11 
185 -1.39719e-11 -4.47689e-12 1.99981e-11 
189 -6.5818e-12 -7.55854e-12 7.28406e-12 
2 1.4206e-10 9.75923e-11 8.61127e-11 
6 2.12643e-10 1.48351e-10 4.53741e-11 
10 2.15934e-10 1.32836e-10 -4.09383e-11 
14 1.2899e-10 6.86558e-11 -7.2983e-11 
18 2.50302e-10 5.35791e-11 1.54667e-10 
22 5.33915e-10 1.26275e-10 1.14797e-10 
26 5.02227e-10 1.05594e-10 -1.13827e-10 
30 1.93945e-10 3.26302e-11 -1.18095e-10 
34 2.47034e-10 -6.28503e-11 1.64922e-10 
38 5.55363e-10 -1.29636e-10 1.21847e-10 
42 5.08592e-10 -1.06423e-10 -1.13936e-10 
46 2.10714e-10 -4.11519e-11 -1.38645e-10 
50 1.38105e-10 -1.08543e-10 1.03756e-10 
54 2.53931e-10 -1.71e-10 6.50117e-11 
58 2.5336e-10 -1.56921e-10 -6.15958e-11 
62 1.31454e-10 -8.0608e-11 -9.26235e-11 
66 9.93044e-11 1.09089e-10 6.81912e-11 
70 1.24673e-10 1.57818e-10 3.53273e-11 
74 7.81124e-11 1.17329e-10 -2.33688e-11 
78 5.31565e-11 7.91742e-11 -4.37072e-11 
82 4.09262e-11 1.19597e-10 7.46758e-11 
86 7.0382e-11 2.10466e-10 4.02764e-11 
90 6.61505e-11 2.14193e-10 -4.02537e-11 
94 2.61631e-11 9.91458e-11 -6.68823e-11 
98 -1.02754e-11 6.21556e-11 4.29086e-11 
102 -2.11159e-11 1.06303e-10 2.86396e-11 
106 -1.11429e-11 1.02831e-10 -1.7316e-11 
110 -6.42827e-12 5.50717e-11 -3.99108e-11 
114 -8.42002e-12 1.61025e-11 1.25773e-11 
118 -1.55971e-11 2.61117e-11 6.19605e-12 
122 -1.42173e-11 2.68287e-11 -5.94041e-12 
126 -8.22924e-12 1.73764e-11 -1.22367e-11 
130 7.32746e-11 5.89096e-11 8.91059e-11 
134 1.16241e-10 3.12942e-11 1.52422e-10 
138 1.00774e-10 -3.29197e-11 1.38516e-10 
142 5.88651e-11 -5.01089e-11 9.05194e-11 
146 3.37663e-11 6.4426e-11 1.02274e-10 
150 6.89461e-11 4.81915e-11 2.09498e-10 
154 5.18061e-11 -3.72752e-11 1.84233e-10 
158 2.57646e-11 -5.91567e-11 9.65975e-11 
162 -4.27813e-12 4.23462e-11 5.69055e-11 
166 -2.24604e-11 3.04871e-11 1.21444e-10 
170 -1.16715e-11 -2.10738e-11 1.00953e-10 
174 -3.54947e-12 -3.7341e-11 4.43977e-11 
178 -1.12675e-11 1.42893e-11 1.59891e-11 
182 -1.54918e-11 7.09916e-12 2.57509e-11 
186 -1.77513e-11 -8.23783e-12 2.95216e-11 
190 -8.65604e-12 -9.79559e-12 1.25733e-11 
3 -6.19769e-12 3.75981e-12 5.85276e-12 
7 -9.16979e-12 7.14629e-12 2.24543e-12 
11 -1.31565e-11 1.07814e-11 -4.75461e-12 
15 -5.38984e-12 6.97195e-12 -7.4711e-12 
19 -8.9952e-12 1.27984e-12 5.82579e-12 
23 -9.54952e-12 3.851e-12 1.99187e-12 
27 -7.98064e-12 2.31444e-12 -2.86651e-12 
31 -1.12137e-11 2.89394e-12 -9.84856e-12 
35 -8.99826e-12 -2.37183e-12 6.46649e-12 
39 -6.75003e-12 -1.68043e-12 1.61365e-12 
43 -9.0304e-12 -2.26902e-12 -2.18413e-12 
47 -1.06468e-11 -6.27436e-13 -7.8301e-12 
51 -5.66537e-12 -5.13489e-12 3.9365e-12 
55 -4.64447e-12 -3.00161e-12 1.9418e-12 
59 -1.41199e-11 -1.06521e-11 -3.56365e-12 
63 -1.31249e-11 -1.04957e-11 -8.24488e-12 
67 5.57539e-11 -7.69639e-11 5.50083e-11 
71 1.18839e-10 -1.59694e-10 3.86702e-11 
75 1.34525e-10 -1.72618e-10 -4.69388e-11 
79 1.02186e-10 -1.09482e-10 -9.16499e-11 
83 2.37676e-11 -8.24898e-11 5.84776e-11 
87 5.25679e-11 -1.99016e-10 4.86535e-11 
91 6.66801e-11 -2.28225e-10 -4.86865e-11 
95 3.2253e-11 -1.06031e-10 -7.54886e-11 
99 -9.95521e-12 -5.62294e-11 3.40416e-11 
103 -1.47459e-11 -7.94401e-11 1.97848e-11 
107 -1.51978e-11 -9.81745e-11 -1.76199e-11 
111 -7.57855e-12 -4.80758e-11 -2.88606e-11 
115 -7.31861e-12 -1.73575e-11 1.00761e-11 
119 -8.54305e-12 -1.61454e-11 2.32051e-12 
123 -1.3461e-11 -2.15115e-11 -5.83357e-12 
127 -6.30875e-12 -1.34388e-11 -9.21146e-12 
131 6.33257e-11 6.51273e-11 -9.27492e-11 
135 1.22902e-10 4.79257e-11 -1.73041e-10 
139 1.37158e-10 -4.76561e-11 -1.77132e-10 
143 9.9248e-11 -8.67753e-11 -1.05902e-10 
147 2.21131e-11 5.28671e-11 -7.53872e-11 
151 5.49076e-11 4.63854e-11 -2.05971e-10 
155 8.15014e-11 -6.25689e-11 -2.56886e-10 
159 4.64261e-11 -8.72331e-11 -1.20471e-10 
163 -2.77856e-12 2.49656e-11 -3.39396e-11 
167 -1.50717e-11 2.42132e-11 -1.00882e-10 
171 -1.48152e-11 -2.03339e-11 -1.06901e-10 
175 -9.61382e-12 -3.57378e-11 -5.37503e-11 
179 -7.09519e-12 9.5592e-12 -1.63007e-11 
183 -1.42292e-11 6.35264e-12 -2.53479e-11 
187 -1.53095e-11 -6.72132e-12 -2.65405e-11 
191 -9.71176e-12 -1.15605e-11 -1.60043e-11 
4 -5.87983e-12 6.23714e-12 6.01202e-12 
8 -1.23067e-11 8.55948e-12 1.95607e-12 
12 -8.86932e-12 9.35212e-12 -2.07036e-12 
16 -4.77965e-12 3.10122e-12 -2.27334e-12 
20 -7.77744e-12 1.76671e-12 7.01216e-12 
24 -1.41992e-11 3.87686e-12 2.7957e-12 
28 -1.40251e-11 3.97613e-12 -3.35149e-12 
32 -7.60256e-12 1.53621e-12 -6.29651e-12 
36 -1.03601e-11 -2.83528e-12 9.97246e-12 
40 -1.77121e-11 -2.84697e-12 5.28831e-12 
44 -1.03164e-11 -2.59132e-12 -3.27934e-12 
48 -1.20639e-11 -2.17971e-12 -8.82407e-12 
52 -4.0196e-12 -6.72686e-12 5.52785e-12 
56 -1.3731e-11 -1.21859e-11 1.86927e-12 
60 -6.35547e-12 -5.89042e-12 -3.8974e-12 
64 -7.65544e-12 -6.10724e-12 -6.23065e-12 
68 8.07797e-11 -8.75684e-11 5.46257e-11 
72 1.26343e-10 -1.59502e-10 3.03088e-11 
76 1.01956e-10 -1.44203e-10 -3.15326e-11 
80 4.35063e-11 -6.72223e-11 -3.78793e-11 
84 3.31381e-11 -1.10299e-10 7.02353e-11 
88 7.07499e-11 -2.22088e-10 4.77875e-11 
92 4.61895e-11 -1.68229e-10 -3.52207e-11 
96 2.21162e-11 -7.95094e-11 -4.96248e-11 
100 -1.03095e-11 -6.19811e-11 4.38054e-11 
104 -2.3334e-11 -1.2675e-10 3.25547e-11 
108 -1.04483e-11 -1.08825e-10 -1.96352e-11 
112 -5.13235e-12 -4.54685e-11 -3.35059e-11 
116 -1.06307e-11 -1.59127e-11 1.1821e-11 
120 -1.55662e-11 -2.228e-11 5.17968e-12 
124 -1.71343e-11 -3.39989e-11 -8.11834e-12 
128 -4.24327e-12 -1.12592e-11 -9.79651e-12 
132 8.2015e-11 6.25917e-11 -9.68035e-11 
136 1.13687e-10 2.91372e-11 -1.4825e-10 
140 9.85197e-11 -2.71975e-11 -1.43116e-10 
144 4.84927e-11 -4.24292e-11 -7.21608e-11 
148 3.67345e-11 6.98508e-11 -1.10602e-10 
152 6.58848e-11 4.38867e-11 -2.27157e-10 
156 5.1552e-11 -3.50471e-11 -1.77498e-10 
160 2.44344e-11 -5.71408e-11 -8.69289e-11 
164 -9.3673e-12 4.53924e-11 -6.43443e-11 
168 -1.70317e-11 1.9083e-11 -1.03896e-10 
172 -1.13745e-11 -2.14277e-11 -9.49637e-11 
176 -5.52968e-12 -3.42126e-11 -4.79654e-11 
180 -1.03448e-11 1.61443e-11 -1.7062e-11 
184 -1.94924e-11 9.43186e-12 -3.30466e-11 
188 -1.42995e-11 -6.78102e-12 -2.75381e-11 
192 -7.3822e-12 -1.2614e-11 -1.75719e-11 
