ITEM: TIMESTEP
25000
ITEM: NUMBER OF SURFS
192
ITEM: BOX BOUNDS oo rr rr
0 5e-06
0 5e-06
0 5e-06
ITEM: SURFS id f_f_drag_cumul[1] f_f_drag_cumul[2] f_f_drag_cumul[3] 
1 0 0 0 
5 0 0 0 
9 0 0 0 
13 0 0 0 
17 0 0 0 
21 0 0 0 
25 0 0 0 
29 0 0 0 
33 0 0 0 
37 0 0 0 
41 0 0 0 
45 0 0 0 
49 0 0 0 
53 0 0 0 
57 0 0 0 
61 0 0 0 
65 0 0 0 
69 0 0 0 
73 0 0 0 
77 0 0 0 
81 0 0 0 
85 0 0 0 
89 0 0 0 
93 0 0 0 
97 0 0 0 
101 0 0 0 
105 0 0 0 
109 0 0 0 
113 0 0 0 
117 0 0 0 
121 0 0 0 
125 0 0 0 
129 0 0 0 
133 0 0 0 
137 0 0 0 
141 0 0 0 
145 0 0 0 
149 0 0 0 
153 0 0 0 
157 0 0 0 
161 0 0 0 
165 0 0 0 
169 0 0 0 
173 0 0 0 
177 0 0 0 
181 0 0 0 
185 0 0 0 
189 0 0 0 
2 0 0 0 
6 0 0 0 
10 0 0 0 
14 0 0 0 
18 0 0 0 
22 0 0 0 
26 0 0 0 
30 0 0 0 
34 0 0 0 
38 0 0 0 
42 0 0 0 
46 0 0 0 
50 0 0 0 
54 0 0 0 
58 0 0 0 
62 0 0 0 
66 0 0 0 
70 0 0 0 
74 0 0 0 
78 0 0 0 
82 0 0 0 
86 0 0 0 
90 0 0 0 
94 0 0 0 
98 0 0 0 
102 0 0 0 
106 0 0 0 
110 0 0 0 
114 0 0 0 
118 0 0 0 
122 0 0 0 
126 0 0 0 
130 0 0 0 
134 0 0 0 
138 0 0 0 
142 0 0 0 
146 0 0 0 
150 0 0 0 
154 0 0 0 
158 0 0 0 
162 0 0 0 
166 0 0 0 
170 0 0 0 
174 0 0 0 
178 0 0 0 
182 0 0 0 
186 0 0 0 
190 0 0 0 
3 0 0 0 
7 0 0 0 
11 0 0 0 
15 0 0 0 
19 0 0 0 
23 0 0 0 
27 0 0 0 
31 0 0 0 
35 0 0 0 
39 0 0 0 
43 0 0 0 
47 0 0 0 
51 0 0 0 
55 0 0 0 
59 0 0 0 
63 0 0 0 
67 0 0 0 
71 0 0 0 
75 0 0 0 
79 0 0 0 
83 0 0 0 
87 0 0 0 
91 0 0 0 
95 0 0 0 
99 0 0 0 
103 0 0 0 
107 0 0 0 
111 0 0 0 
115 0 0 0 
119 0 0 0 
123 0 0 0 
127 0 0 0 
131 0 0 0 
135 0 0 0 
139 0 0 0 
143 0 0 0 
147 0 0 0 
151 0 0 0 
155 0 0 0 
159 0 0 0 
163 0 0 0 
167 0 0 0 
171 0 0 0 
175 0 0 0 
179 0 0 0 
183 0 0 0 
187 0 0 0 
191 0 0 0 
4 0 0 0 
8 0 0 0 
12 0 0 0 
16 0 0 0 
20 0 0 0 
24 0 0 0 
28 0 0 0 
32 0 0 0 
36 0 0 0 
40 0 0 0 
44 0 0 0 
48 0 0 0 
52 0 0 0 
56 0 0 0 
60 0 0 0 
64 0 0 0 
68 0 0 0 
72 0 0 0 
76 0 0 0 
80 0 0 0 
84 0 0 0 
88 0 0 0 
92 0 0 0 
96 0 0 0 
100 0 0 0 
104 0 0 0 
108 0 0 0 
112 0 0 0 
116 0 0 0 
120 0 0 0 
124 0 0 0 
128 0 0 0 
132 0 0 0 
136 0 0 0 
140 0 0 0 
144 0 0 0 
148 0 0 0 
152 0 0 0 
156 0 0 0 
160 0 0 0 
164 0 0 0 
168 0 0 0 
172 0 0 0 
176 0 0 0 
180 0 0 0 
184 0 0 0 
188 0 0 0 
192 0 0 0 
ITEM: TIMESTEP
50000
ITEM: NUMBER OF SURFS
192
ITEM: BOX BOUNDS oo rr rr
0 5e-06
0 5e-06
0 5e-06
ITEM: SURFS id f_f_drag_cumul[1] f_f_drag_cumul[2] f_f_drag_cumul[3] 
1 1.03325e-14 6.48524e-15 7.62568e-15 
5 1.2085e-14 7.87875e-15 3.11237e-15 
9 1.19413e-14 8.43898e-15 -3.10761e-15 
13 7.43281e-15 6.13676e-15 -6.05281e-15 
17 1.25442e-14 2.47348e-15 8.7274e-15 
21 2.13523e-14 4.81656e-15 5.05343e-15 
25 2.41475e-14 5.9772e-15 -5.9784e-15 
29 1.26308e-14 3.11451e-15 -8.56768e-15 
33 1.29594e-14 -2.46112e-15 7.95936e-15 
37 1.99421e-14 -3.78914e-15 4.0225e-15 
41 2.0997e-14 -4.8042e-15 -4.4949e-15 
45 1.22616e-14 -3.01105e-15 -7.67935e-15 
49 1.95194e-14 -1.0749e-14 1.10353e-14 
53 1.40584e-14 -8.64803e-15 2.81073e-15 
57 1.21701e-14 -8.40801e-15 -2.29262e-15 
61 1.09087e-14 -7.85545e-15 -6.76951e-15 
65 6.2047e-15 9.09776e-15 6.92656e-15 
69 6.91741e-15 1.00763e-14 2.55318e-15 
73 8.10735e-15 1.07219e-14 -2.87287e-15 
77 5.55158e-15 6.45657e-15 -5.41245e-15 
81 2.01803e-15 7.48574e-15 5.28401e-15 
85 3.66992e-15 1.43692e-14 3.54105e-15 
89 4.41504e-15 1.66344e-14 -4.02465e-15 
93 2.31768e-15 7.29102e-15 -5.42465e-15 
97 -7.83992e-16 5.86952e-15 3.79326e-15 
101 -1.06348e-15 8.68493e-15 1.88046e-15 
105 -1.33513e-15 8.22583e-15 -1.72229e-15 
109 -9.06291e-16 5.24102e-15 -3.44875e-15 
113 -2.07589e-15 4.42291e-15 2.66508e-15 
117 -1.43272e-15 2.87645e-15 4.94163e-16 
121 -1.33241e-15 2.34161e-15 -4.54928e-16 
125 -1.27156e-15 1.995e-15 -1.32835e-15 
129 6.16563e-15 6.87429e-15 9.18008e-15 
133 6.96269e-15 2.36825e-15 9.92775e-15 
137 6.81981e-15 -2.41868e-15 9.32009e-15 
141 5.89154e-15 -5.66359e-15 7.02973e-15 
145 1.91048e-15 5.2751e-15 7.50941e-15 
149 3.44009e-15 3.22727e-15 1.41391e-14 
153 4.55522e-15 -3.75098e-15 1.55298e-14 
157 2.45471e-15 -5.82866e-15 7.87735e-15 
161 -6.16285e-16 3.5092e-15 5.47265e-15 
165 -1.00405e-15 1.67381e-15 7.96518e-15 
169 -1.47835e-15 -2.01626e-15 8.99785e-15 
173 -9.78237e-16 -3.05143e-15 4.78548e-15 
177 -2.35359e-15 2.77028e-15 4.81677e-15 
181 -1.31867e-15 5.86399e-16 2.72411e-15 
185 -1.31762e-15 -4.03194e-16 2.22316e-15 
189 -1.43576e-15 -1.44939e-15 2.3585e-15 
2 1.09507e-14 8.28075e-15 6.87912e-15 
6 1.17995e-14 8.12451e-15 2.73304e-15 
10 1.36744e-14 8.42798e-15 -2.53379e-15 
14 1.79866e-14 1.01628e-14 -1.00517e-14 
18 1.21352e-14 3.03255e-15 7.92503e-15 
22 2.20525e-14 4.97096e-15 4.72273e-15 
26 1.95533e-14 4.05797e-15 -3.94734e-15 
30 1.38501e-14 2.59952e-15 -8.5347e-15 
34 1.1556e-14 -3.16503e-15 8.10114e-15 
38 2.37011e-14 -5.49795e-15 5.31477e-15 
42 2.29259e-14 -5.03443e-15 -4.95985e-15 
46 1.19727e-14 -2.37228e-15 -8.40559e-15 
50 7.37006e-15 -5.80508e-15 5.6936e-15 
54 1.26702e-14 -8.92411e-15 3.21724e-15 
58 1.20831e-14 -7.57284e-15 -2.65757e-15 
62 1.00749e-14 -6.44712e-15 -7.47288e-15 
66 7.33277e-15 9.15413e-15 6.04303e-15 
70 7.79134e-15 1.03608e-14 2.19437e-15 
74 7.31829e-15 1.10417e-14 -2.16087e-15 
78 9.43334e-15 1.5253e-14 -8.38308e-15 
82 2.30778e-15 7.51939e-15 5.06907e-15 
86 3.13967e-15 1.15495e-14 2.54614e-15 
90 2.89303e-15 1.1783e-14 -2.27516e-15 
94 2.08903e-15 8.32963e-15 -5.28237e-15 
98 -9.1085e-16 4.52983e-15 3.14108e-15 
102 -1.5107e-15 8.34757e-15 1.92809e-15 
106 -1.05055e-15 7.72464e-15 -1.78333e-15 
110 -6.13401e-16 4.56889e-15 -3.23907e-15 
114 -1.16457e-15 1.7294e-15 1.38106e-15 
118 -1.21768e-15 1.98805e-15 4.38664e-16 
122 -1.30304e-15 2.53885e-15 -5.24831e-16 
126 -1.24689e-15 2.5153e-15 -1.93616e-15 
130 7.51836e-15 6.10502e-15 9.38376e-15 
134 7.87235e-15 2.31034e-15 1.04202e-14 
138 6.92587e-15 -1.81554e-15 1.05611e-14 
142 9.28728e-15 -8.71441e-15 1.50098e-14 
146 2.27124e-15 4.87186e-15 7.31749e-15 
150 3.56444e-15 2.99502e-15 1.30456e-14 
154 2.65022e-15 -2.08017e-15 1.0816e-14 
158 2.02239e-15 -4.97106e-15 7.84052e-15 
162 -7.27118e-16 3.0753e-15 4.32682e-15 
166 -1.34234e-15 1.75904e-15 7.89504e-15 
170 -1.19267e-15 -1.69025e-15 7.5097e-15 
174 -6.19573e-16 -3.27315e-15 4.79114e-15 
178 -9.36562e-16 1.26648e-15 1.52969e-15 
182 -1.20418e-15 6.43867e-16 2.29038e-15 
186 -1.28989e-15 -7.07315e-16 2.67757e-15 
190 -1.35137e-15 -2.02057e-15 2.54288e-15 
3 -9.39634e-16 7.02193e-16 9.1137e-16 
7 -3.70489e-16 4.19986e-16 1.17062e-16 
11 -4.77104e-16 4.57137e-16 -1.84558e-16 
15 -8.92427e-16 9.30549e-16 -9.40643e-16 
19 -5.84848e-16 2.02361e-16 5.90118e-16 
23 -1.28064e-16 8.10839e-17 7.35524e-17 
27 -1.2881e-16 5.30822e-17 -4.42406e-17 
31 -4.7122e-16 1.53532e-16 -4.85568e-16 
35 -6.56492e-16 -1.94322e-16 5.06534e-16 
39 -1.26911e-16 -3.82514e-17 5.95756e-17 
43 -8.29593e-17 -2.24816e-17 -4.11876e-17 
47 -4.90499e-16 -2.06279e-16 -3.59608e-16 
51 -1.15649e-15 -9.68485e-16 8.73926e-16 
55 -5.06874e-16 -4.51603e-16 1.463e-16 
59 -4.40982e-16 -3.94409e-16 -1.4536e-16 
63 -1.04901e-15 -1.00742e-15 -8.12248e-16 
67 6.46465e-15 -9.13911e-15 7.12039e-15 
71 6.81882e-15 -9.9468e-15 2.46471e-15 
75 7.63463e-15 -9.9171e-15 -2.53495e-15 
79 5.36804e-15 -6.28278e-15 -5.12974e-15 
83 2.07256e-15 -8.11214e-15 5.68895e-15 
87 3.60556e-15 -1.42094e-14 3.34052e-15 
91 3.93596e-15 -1.44473e-14 -3.43159e-15 
95 2.09046e-15 -6.72105e-15 -4.90748e-15 
99 -7.92692e-16 -6.37716e-15 3.94537e-15 
103 -1.1914e-15 -8.40658e-15 1.66837e-15 
107 -1.51635e-15 -8.8816e-15 -1.96736e-15 
111 -7.81878e-16 -4.65821e-15 -3.08035e-15 
115 -1.99634e-15 -4.5116e-15 2.54373e-15 
119 -1.47241e-15 -3.03208e-15 5.69217e-16 
123 -1.29342e-15 -2.32997e-15 -6.39622e-16 
127 -1.51338e-15 -2.53053e-15 -1.68856e-15 
131 5.90647e-15 6.44955e-15 -8.5543e-15 
135 7.36747e-15 2.63024e-15 -1.05805e-14 
139 7.51661e-15 -2.62076e-15 -9.79196e-15 
143 5.57431e-15 -5.32305e-15 -6.48155e-15 
147 1.8096e-15 5.06737e-15 -7.07861e-15 
151 3.52499e-15 3.05065e-15 -1.33505e-14 
155 4.40634e-15 -3.71785e-15 -1.55312e-14 
159 2.31374e-15 -5.50434e-15 -7.61146e-15 
163 -7.77715e-16 3.6815e-15 -6.13761e-15 
167 -1.338e-15 2.02819e-15 -9.01999e-15 
171 -1.31354e-15 -1.82093e-15 -8.40068e-15 
175 -7.51813e-16 -2.98625e-15 -4.44598e-15 
179 -2.06812e-15 2.68776e-15 -4.61682e-15 
183 -1.41211e-15 5.48364e-16 -2.90704e-15 
187 -1.36821e-15 -4.2951e-16 -2.4319e-15 
191 -1.33822e-15 -1.41884e-15 -2.26082e-15 
4 -9.801e-16 9.45483e-16 8.23246e-16 
8 -6.33632e-16 6.1177e-16 1.48714e-16 
12 -6.22383e-16 3.91125e-16 -1.12072e-16 
16 -1.25506e-15 9.77516e-16 -9.67132e-16 
20 -4.8637e-16 1.82886e-16 4.81225e-16 
24 -1.07422e-16 3.0948e-17 7.22924e-17 
28 -8.13065e-17 1.97427e-17 -3.38805e-17 
32 -4.43942e-16 1.63859e-16 -4.13575e-16 
36 -4.92799e-16 -1.709e-16 4.33249e-16 
40 -1.6985e-16 -4.86391e-17 6.25393e-17 
44 -1.04097e-16 -3.9926e-17 -4.70273e-17 
48 -6.06969e-16 -1.55173e-16 -5.60387e-16 
52 -8.18939e-16 -8.51917e-16 9.43688e-16 
56 -4.43961e-16 -4.6634e-16 1.63164e-16 
60 -5.99882e-16 -4.87917e-16 -1.96076e-16 
64 -9.74454e-16 -7.27078e-16 -7.86604e-16 
68 7.59119e-15 -9.34409e-15 6.02733e-15 
72 7.42061e-15 -1.02564e-14 2.00867e-15 
76 7.02294e-15 -1.08075e-14 -2.23482e-15 
80 9.0488e-15 -1.49232e-14 -8.42313e-15 
84 2.21987e-15 -7.44055e-15 4.70045e-15 
88 3.68382e-15 -1.31681e-14 2.74635e-15 
92 2.89251e-15 -1.16365e-14 -2.3282e-15 
96 1.66837e-15 -6.88288e-15 -4.35363e-15 
100 -7.13721e-16 -4.59581e-15 3.36552e-15 
104 -1.49218e-15 -8.00147e-15 1.75584e-15 
108 -1.18276e-15 -7.66921e-15 -1.69613e-15 
112 -5.2438e-16 -4.49475e-15 -3.08911e-15 
116 -9.43742e-16 -1.50205e-15 1.14303e-15 
120 -1.23008e-15 -2.15505e-15 4.73381e-16 
124 -1.08024e-15 -2.35459e-15 -6.28238e-16 
128 -1.67031e-15 -3.04219e-15 -2.2963e-15 
132 7.88335e-15 6.42775e-15 -9.79662e-15 
136 7.20074e-15 2.0403e-15 -9.97679e-15 
140 7.05984e-15 -1.94797e-15 -1.06072e-14 
144 9.31221e-15 -8.79406e-15 -1.52427e-14 
148 2.16507e-15 4.82344e-15 -7.2893e-15 
152 3.39259e-15 2.79208e-15 -1.25861e-14 
156 3.03397e-15 -2.3238e-15 -1.20155e-14 
160 1.97528e-15 -4.82828e-15 -7.44615e-15 
164 -7.56131e-16 3.51049e-15 -4.61892e-15 
168 -1.36891e-15 1.96724e-15 -8.17564e-15 
172 -1.11397e-15 -1.57103e-15 -7.32594e-15 
176 -4.92326e-16 -3.17186e-15 -4.53875e-15 
180 -1.01645e-15 1.3487e-15 -1.66023e-15 
184 -1.34084e-15 5.48768e-16 -2.33758e-15 
188 -1.3761e-15 -7.36815e-16 -2.68389e-15 
192 -1.35381e-15 -1.95804e-15 -2.58851e-15 
