ITEM: TIMESTEP
25000
ITEM: NUMBER OF SURFS
192
ITEM: BOX BOUNDS oo rr rr
0 5e-06
0 5e-06
0 5e-06
ITEM: SURFS id f_f_drag_blocks[1] f_f_drag_blocks[2] f_f_drag_blocks[3] 
1 0 0 0 
5 0 0 0 
9 0 0 0 
13 0 0 0 
17 0 0 0 
21 0 0 0 
25 0 0 0 
29 0 0 0 
33 0 0 0 
37 0 0 0 
41 0 0 0 
45 0 0 0 
49 0 0 0 
53 0 0 0 
57 0 0 0 
61 0 0 0 
65 0 0 0 
69 0 0 0 
73 0 0 0 
77 0 0 0 
81 0 0 0 
85 0 0 0 
89 0 0 0 
93 0 0 0 
97 0 0 0 
101 0 0 0 
105 0 0 0 
109 0 0 0 
113 0 0 0 
117 0 0 0 
121 0 0 0 
125 0 0 0 
129 0 0 0 
133 0 0 0 
137 0 0 0 
141 0 0 0 
145 0 0 0 
149 0 0 0 
153 0 0 0 
157 0 0 0 
161 0 0 0 
165 0 0 0 
169 0 0 0 
173 0 0 0 
177 0 0 0 
181 0 0 0 
185 0 0 0 
189 0 0 0 
2 0 0 0 
6 0 0 0 
10 0 0 0 
14 0 0 0 
18 0 0 0 
22 0 0 0 
26 0 0 0 
30 0 0 0 
34 0 0 0 
38 0 0 0 
42 0 0 0 
46 0 0 0 
50 0 0 0 
54 0 0 0 
58 0 0 0 
62 0 0 0 
66 0 0 0 
70 0 0 0 
74 0 0 0 
78 0 0 0 
82 0 0 0 
86 0 0 0 
90 0 0 0 
94 0 0 0 
98 0 0 0 
102 0 0 0 
106 0 0 0 
110 0 0 0 
114 0 0 0 
118 0 0 0 
122 0 0 0 
126 0 0 0 
130 0 0 0 
134 0 0 0 
138 0 0 0 
142 0 0 0 
146 0 0 0 
150 0 0 0 
154 0 0 0 
158 0 0 0 
162 0 0 0 
166 0 0 0 
170 0 0 0 
174 0 0 0 
178 0 0 0 
182 0 0 0 
186 0 0 0 
190 0 0 0 
3 0 0 0 
7 0 0 0 
11 0 0 0 
15 0 0 0 
19 0 0 0 
23 0 0 0 
27 0 0 0 
31 0 0 0 
35 0 0 0 
39 0 0 0 
43 0 0 0 
47 0 0 0 
51 0 0 0 
55 0 0 0 
59 0 0 0 
63 0 0 0 
67 0 0 0 
71 0 0 0 
75 0 0 0 
79 0 0 0 
83 0 0 0 
87 0 0 0 
91 0 0 0 
95 0 0 0 
99 0 0 0 
103 0 0 0 
107 0 0 0 
111 0 0 0 
115 0 0 0 
119 0 0 0 
123 0 0 0 
127 0 0 0 
131 0 0 0 
135 0 0 0 
139 0 0 0 
143 0 0 0 
147 0 0 0 
151 0 0 0 
155 0 0 0 
159 0 0 0 
163 0 0 0 
167 0 0 0 
171 0 0 0 
175 0 0 0 
179 0 0 0 
183 0 0 0 
187 0 0 0 
191 0 0 0 
4 0 0 0 
8 0 0 0 
12 0 0 0 
16 0 0 0 
20 0 0 0 
24 0 0 0 
28 0 0 0 
32 0 0 0 
36 0 0 0 
40 0 0 0 
44 0 0 0 
48 0 0 0 
52 0 0 0 
56 0 0 0 
60 0 0 0 
64 0 0 0 
68 0 0 0 
72 0 0 0 
76 0 0 0 
80 0 0 0 
84 0 0 0 
88 0 0 0 
92 0 0 0 
96 0 0 0 
100 0 0 0 
104 0 0 0 
108 0 0 0 
112 0 0 0 
116 0 0 0 
120 0 0 0 
124 0 0 0 
128 0 0 0 
132 0 0 0 
136 0 0 0 
140 0 0 0 
144 0 0 0 
148 0 0 0 
152 0 0 0 
156 0 0 0 
160 0 0 0 
164 0 0 0 
168 0 0 0 
172 0 0 0 
176 0 0 0 
180 0 0 0 
184 0 0 0 
188 0 0 0 
192 0 0 0 
ITEM: TIMESTEP
26000
ITEM: NUMBER OF SURFS
192
ITEM: BOX BOUNDS oo rr rr
0 5e-06
0 5e-06
0 5e-06
ITEM: SURFS id f_f_drag_blocks[1] f_f_drag_blocks[2] f_f_drag_blocks[3] 
1 9.56759e-15 6.71428e-15 6.64007e-15 
5 1.42697e-14 9.07838e-15 4.12273e-15 
9 1.35737e-14 9.61804e-15 -4.45155e-15 
13 9.23814e-15 6.29399e-15 -6.78697e-15 
17 1.47526e-14 3.59062e-15 1.10995e-14 
21 2.29166e-14 4.88504e-15 5.99552e-15 
25 1.68326e-14 3.67775e-15 -4.61357e-15 
29 1.63054e-14 3.35386e-15 -1.02467e-14 
33 1.2762e-14 -2.84842e-15 7.40199e-15 
37 1.56966e-14 -3.32348e-15 4.05153e-15 
41 2.24037e-14 -5.32713e-15 -5.84914e-15 
45 9.80816e-15 -3.04422e-15 -6.36865e-15 
49 2.24745e-14 -1.33229e-14 1.22805e-14 
53 1.55103e-14 -8.74178e-15 3.37392e-15 
57 1.50954e-14 -1.08459e-14 -2.8005e-15 
61 8.37959e-15 -6.39784e-15 -5.55719e-15 
65 6.75906e-15 1.14515e-14 8.88734e-15 
69 8.48942e-15 1.26586e-14 3.9541e-15 
73 1.2042e-14 1.61287e-14 -4.25736e-15 
77 5.97554e-15 6.72518e-15 -5.78946e-15 
81 2.82918e-15 9.45155e-15 6.54609e-15 
85 3.76734e-15 1.16816e-14 2.65855e-15 
89 3.72039e-15 1.45871e-14 -3.11289e-15 
93 1.84655e-15 7.85303e-15 -5.40431e-15 
97 -2.50661e-16 4.52467e-15 2.75176e-15 
101 -1.36718e-15 9.22347e-15 2.35488e-15 
105 -8.39601e-16 7.20524e-15 -1.66709e-15 
109 -9.52587e-16 6.05767e-15 -4.2921e-15 
113 -1.57955e-15 3.77056e-15 2.20253e-15 
117 -1.60847e-15 2.54993e-15 5.25278e-16 
121 -1.11717e-15 2.90037e-15 -1.10477e-15 
125 -8.57468e-16 1.42475e-15 -1.0535e-15 
129 8.26752e-15 1.06215e-14 1.34619e-14 
133 6.75459e-15 1.15966e-15 9.85507e-15 
137 3.84177e-15 -1.56158e-15 6.27168e-15 
141 7.28679e-15 -7.13477e-15 8.3427e-15 
145 1.44356e-15 5.12057e-15 6.78987e-15 
149 3.00284e-15 2.70525e-15 1.43366e-14 
153 3.14711e-15 -4.71414e-15 1.47853e-14 
157 3.52886e-15 -7.94115e-15 1.19281e-14 
161 -1.30759e-15 3.39056e-15 5.50868e-15 
165 -5.26264e-16 2.36081e-15 1.06882e-14 
169 -1.72165e-15 -1.73366e-15 1.45123e-14 
173 -1.23547e-16 -1.35517e-15 1.67122e-15 
177 -2.04149e-15 3.22807e-15 5.2316e-15 
181 -1.19731e-15 4.78769e-16 3.2251e-15 
185 -2.58341e-15 -1.03543e-15 5.2003e-15 
189 -9.992e-16 -1.03001e-15 1.61621e-15 
2 1.33991e-14 9.96298e-15 7.76212e-15 
6 1.19411e-14 7.44965e-15 2.51542e-15 
10 1.7694e-14 1.05264e-14 -2.8609e-15 
14 1.99257e-14 1.04654e-14 -1.06811e-14 
18 1.31354e-14 4.73652e-15 7.42246e-15 
22 2.88879e-14 6.93173e-15 6.88297e-15 
26 2.17062e-14 4.32477e-15 -4.64427e-15 
30 1.68559e-14 3.46785e-15 -9.49195e-15 
34 8.77241e-15 -2.50409e-15 6.0001e-15 
38 2.53715e-14 -6.05971e-15 6.10449e-15 
42 2.11451e-14 -4.20326e-15 -5.99305e-15 
46 1.2616e-14 -2.37655e-15 -8.65137e-15 
50 9.56353e-15 -7.51757e-15 8.2115e-15 
54 7.10652e-15 -4.58254e-15 1.541e-15 
58 1.12168e-14 -9.00877e-15 -2.87326e-15 
62 7.4209e-15 -4.92556e-15 -5.45664e-15 
66 8.82804e-15 1.07847e-14 7.74701e-15 
70 7.85866e-15 1.34224e-14 3.11275e-15 
74 5.24502e-15 8.38063e-15 -1.29968e-15 
78 8.96926e-15 1.42996e-14 -6.32723e-15 
82 3.87616e-15 1.16211e-14 6.52061e-15 
86 3.79591e-15 1.18051e-14 2.24426e-15 
90 1.66735e-15 8.44024e-15 -1.74281e-15 
94 2.01747e-15 1.00873e-14 -5.46769e-15 
98 -1.46832e-15 4.87187e-15 3.90844e-15 
102 -1.62878e-15 9.66208e-15 1.23117e-15 
106 -1.37442e-15 6.41468e-15 -1.83045e-15 
110 -8.38842e-16 5.1257e-15 -3.36987e-15 
114 -1.831e-15 2.49117e-15 2.4278e-15 
118 -6.06431e-16 9.25952e-16 3.67477e-16 
122 -1.36973e-15 2.28777e-15 -6.00325e-16 
126 -5.4931e-16 1.68764e-15 -1.06537e-15 
130 6.81698e-15 6.70855e-15 9.31483e-15 
134 7.50683e-15 3.27044e-15 1.09504e-14 
138 8.71447e-15 -2.60748e-15 1.39327e-14 
142 9.69409e-15 -6.94497e-15 1.23361e-14 
146 1.65563e-15 4.65873e-15 6.84588e-15 
150 4.66543e-15 3.34736e-15 1.50265e-14 
154 3.46088e-15 -2.3997e-15 9.59022e-15 
158 1.65335e-15 -4.6678e-15 6.87551e-15 
162 -2.86651e-16 2.44456e-15 3.07078e-15 
166 -8.42462e-16 9.55872e-16 5.98486e-15 
170 -8.74787e-16 -1.83252e-15 8.28346e-15 
174 -9.47449e-16 -3.15524e-15 6.20249e-15 
178 -1.17824e-15 1.69353e-15 2.31159e-15 
182 -8.00058e-16 2.37169e-16 1.35227e-15 
186 -1.71766e-15 -7.38664e-16 2.91295e-15 
190 -6.18208e-16 -8.44721e-16 1.18443e-15 
3 -9.45917e-16 5.45193e-16 9.24421e-16 
7 -5.33592e-16 5.3359e-16 7.33108e-18 
11 -3.67037e-16 6.03552e-16 1.37454e-16 
15 -5.089e-16 5.63496e-16 -5.89711e-16 
19 -1.98813e-16 6.63418e-18 4.096e-16 
23 -1.45391e-16 1.16355e-16 8.8725e-17 
27 0 0 0 
31 -6.43333e-16 2.84111e-16 -7.85942e-16 
35 -1.12608e-15 -4.10394e-16 5.74301e-16 
39 -2.8718e-16 8.14241e-18 1.01272e-16 
43 0 0 0 
47 -1.16339e-16 -3.87137e-16 -5.67385e-16 
51 -2.00021e-15 -1.23076e-15 7.99698e-16 
55 -2.44994e-16 -4.90016e-16 3.90332e-16 
59 -1.17194e-16 -3.23814e-16 -1.76399e-16 
63 -1.88223e-15 -8.10895e-16 -1.1822e-15 
67 4.95647e-15 -7.81158e-15 5.95024e-15 
71 6.07134e-15 -8.27412e-15 2.57369e-15 
75 8.92497e-15 -1.00448e-14 -3.5078e-15 
79 3.77446e-15 -4.36026e-15 -3.23624e-15 
83 2.5005e-15 -8.40335e-15 5.66771e-15 
87 3.08625e-15 -1.16577e-14 2.86782e-15 
91 4.52035e-15 -1.54884e-14 -3.81081e-15 
95 1.80895e-15 -7.07e-15 -5.1885e-15 
99 -1.2118e-15 -8.76893e-15 4.85954e-15 
103 -1.46946e-16 -6.42113e-15 1.6613e-15 
107 -1.9679e-15 -8.39247e-15 -2.36907e-15 
111 -1.07162e-15 -5.01816e-15 -3.05796e-15 
115 -1.51927e-15 -3.42195e-15 2.79926e-15 
119 -8.77389e-16 -1.22529e-15 2.86436e-16 
123 -1.8427e-15 -3.09389e-15 -5.35348e-16 
127 -3.00015e-15 -3.77222e-15 -2.94453e-15 
131 8.3898e-15 9.02482e-15 -1.13849e-14 
135 8.73797e-15 2.24191e-15 -1.16528e-14 
139 9.12859e-15 -3.31033e-15 -1.15643e-14 
143 7.2282e-15 -6.68942e-15 -8.57548e-15 
147 1.7321e-15 5.29702e-15 -7.30777e-15 
151 3.07014e-15 3.38187e-15 -1.51004e-14 
155 4.38963e-15 -2.97429e-15 -1.39284e-14 
159 2.40008e-15 -4.77686e-15 -5.73973e-15 
163 -1.50023e-15 3.12149e-15 -5.59632e-15 
167 -1.6681e-15 2.57281e-15 -1.17396e-14 
171 -2.34821e-15 -2.77299e-15 -1.14183e-14 
175 -6.80053e-16 -3.20665e-15 -5.32055e-15 
179 -2.67686e-15 4.09111e-15 -6.93188e-15 
183 -1.92725e-15 6.19124e-16 -3.93936e-15 
187 -6.44046e-16 -2.11292e-16 -1.04866e-15 
191 -1.49047e-15 -1.44399e-15 -2.0112e-15 
4 -1.87078e-15 2.26334e-15 1.95931e-15 
8 -4.39084e-16 4.99244e-16 1.18433e-16 
12 -4.94976e-16 1.49832e-16 -7.3803e-17 
16 -1.39629e-15 1.05879e-15 -9.65464e-16 
20 -3.62721e-16 1.85067e-16 2.7001e-16 
24 -2.33235e-17 7.12183e-17 2.50128e-16 
28 -1.35123e-16 1.2857e-18 4.92682e-17 
32 -3.39486e-16 -1.0867e-16 -6.20893e-16 
36 -1.38425e-15 -1.1273e-16 9.32489e-16 
40 -3.47271e-16 9.23305e-17 -1.43474e-16 
44 -2.08797e-16 -3.58839e-17 -1.05164e-16 
48 -3.54996e-16 2.29743e-16 -7.96901e-16 
52 -3.46417e-16 -3.71192e-16 4.87702e-16 
56 0 0 0 
60 0 0 0 
64 -6.8562e-16 -5.26787e-16 -3.35419e-16 
68 9.57709e-15 -1.31324e-14 8.00854e-15 
72 8.81465e-15 -1.16844e-14 2.54812e-15 
76 6.50077e-15 -1.01299e-14 -2.88326e-15 
80 7.06064e-15 -1.17985e-14 -5.99328e-15 
84 1.18371e-15 -5.7013e-15 3.175e-15 
88 3.51548e-15 -1.75455e-14 4.53995e-15 
92 3.70192e-15 -1.66772e-14 -2.6548e-15 
96 2.54802e-15 -6.26292e-15 -4.22697e-15 
100 -7.68098e-16 -4.33174e-15 2.96107e-15 
104 -1.1079e-15 -8.94113e-15 1.52395e-15 
108 -1.19353e-15 -9.50786e-15 -2.50745e-15 
112 -4.58634e-16 -3.74667e-15 -2.7144e-15 
116 -1.60211e-15 -1.49679e-15 8.52244e-16 
120 -2.33072e-15 -3.16919e-15 6.66782e-16 
124 -1.61314e-15 -3.73651e-15 -3.16159e-16 
128 -1.83433e-15 -3.02934e-15 -2.53949e-15 
132 6.96884e-15 6.11633e-15 -9.58828e-15 
136 8.53441e-15 2.06357e-15 -1.23896e-14 
140 6.33713e-15 -2.5743e-15 -1.02064e-14 
144 1.05511e-14 -1.1434e-14 -1.77029e-14 
148 2.37022e-15 5.44267e-15 -7.56214e-15 
152 3.68909e-15 1.88829e-15 -1.12682e-14 
156 2.69551e-15 -2.42285e-15 -1.16065e-14 
160 1.22245e-15 -3.24751e-15 -4.3011e-15 
164 -5.65715e-16 2.02793e-15 -3.56624e-15 
168 -1.01203e-15 5.47718e-16 -5.39183e-15 
172 -1.29305e-15 -9.0877e-16 -6.85005e-15 
176 -4.67204e-16 -2.9637e-15 -3.83264e-15 
180 -1.76595e-16 1.91524e-16 -1.53822e-16 
184 -6.99245e-16 6.35827e-16 -1.04258e-15 
188 -1.39237e-15 -4.52902e-16 -2.3412e-15 
192 -1.54898e-15 -2.55149e-15 -2.55009e-15 
ITEM: TIMESTEP
27000
ITEM: NUMBER OF SURFS
192
ITEM: BOX BOUNDS oo rr rr
0 5e-06
0 5e-06
0 5e-06
ITEM: SURFS id f_f_drag_blocks[1] f_f_drag_blocks[2] f_f_drag_blocks[3] 
1 1.07528e-14 7.27662e-15 7.39058e-15 
5 1.02556e-14 6.8702e-15 3.85263e-15 
9 9.49876e-15 5.5576e-15 -1.79798e-15 
13 7.51736e-15 5.99935e-15 -7.41362e-15 
17 1.14421e-14 2.22429e-15 8.29818e-15 
21 2.61013e-14 5.95439e-15 5.23807e-15 
25 3.11098e-14 8.33236e-15 -8.40157e-15 
29 1.34531e-14 3.69009e-15 -8.34098e-15 
33 1.13232e-14 -1.53184e-15 6.96836e-15 
37 2.05711e-14 -4.36958e-15 4.65789e-15 
41 1.54668e-14 -4.78357e-15 -4.22895e-15 
45 7.84872e-15 -1.9712e-15 -5.9434e-15 
49 1.83467e-14 -9.64761e-15 1.00657e-14 
53 1.41869e-14 -7.92799e-15 3.06046e-15 
57 1.18112e-14 -7.94894e-15 -2.29784e-15 
61 1.19182e-14 -9.31688e-15 -7.93646e-15 
65 4.33489e-15 6.00456e-15 5.49937e-15 
69 4.29235e-15 6.22995e-15 1.83919e-15 
73 1.02953e-14 1.32669e-14 -3.75352e-15 
77 3.81668e-15 4.80023e-15 -3.63323e-15 
81 2.61981e-15 7.94965e-15 5.90721e-15 
85 5.5016e-15 1.39087e-14 3.20437e-15 
89 5.8805e-15 2.17583e-14 -5.69973e-15 
93 1.56425e-15 8.10342e-15 -5.36363e-15 
97 -9.69938e-16 6.82793e-15 4.32953e-15 
101 -1.38154e-15 1.07961e-14 2.11493e-15 
105 -2.26113e-15 1.18865e-14 -2.66605e-15 
109 -1.23006e-15 5.35282e-15 -3.95854e-15 
113 -2.5465e-15 5.64597e-15 3.33094e-15 
117 -1.04285e-15 3.00987e-15 7.43075e-16 
121 -9.69536e-16 1.75903e-15 -2.04681e-16 
125 -1.99414e-15 2.62572e-15 -1.50703e-15 
129 6.12038e-15 6.16057e-15 9.40696e-15 
133 5.34039e-15 1.96481e-15 7.59111e-15 
137 7.6904e-15 -2.91379e-15 1.12039e-14 
141 4.01701e-15 -4.25156e-15 5.64952e-15 
145 1.43234e-15 5.17059e-15 7.3584e-15 
149 2.00258e-15 2.42105e-15 1.14313e-14 
153 3.49382e-15 -2.35094e-15 1.22302e-14 
157 1.76109e-15 -4.35672e-15 5.7299e-15 
161 -7.333e-16 3.4881e-15 5.10046e-15 
165 -1.39752e-15 1.23143e-15 6.00726e-15 
169 -7.19039e-16 -2.20415e-15 8.35135e-15 
173 -6.19161e-16 -4.86135e-15 6.85082e-15 
177 -3.61374e-15 4.02142e-15 7.27773e-15 
181 -1.39183e-15 6.2275e-16 3.22517e-15 
185 -1.32366e-15 -2.82808e-16 2.27619e-15 
189 -1.94828e-15 -1.60147e-15 3.61788e-15 
2 1.04612e-14 8.7225e-15 6.50151e-15 
6 1.16522e-14 7.76114e-15 2.74049e-15 
10 1.40872e-14 8.3601e-15 -2.81806e-15 
14 1.78413e-14 9.39896e-15 -9.82321e-15 
18 9.06904e-15 2.51086e-15 6.15951e-15 
22 2.37381e-14 5.48613e-15 4.74649e-15 
26 2.04718e-14 5.03087e-15 -5.09089e-15 
30 1.70354e-14 3.25184e-15 -1.06513e-14 
34 1.09658e-14 -2.77642e-15 7.10472e-15 
38 2.89295e-14 -6.84661e-15 6.81754e-15 
42 2.24048e-14 -3.72527e-15 -4.88341e-15 
46 1.46096e-14 -3.28454e-15 -1.04948e-14 
50 6.84446e-15 -5.61292e-15 5.47839e-15 
54 1.0606e-14 -7.22245e-15 2.8064e-15 
58 1.11273e-14 -6.24931e-15 -3.01904e-15 
62 9.94814e-15 -5.79829e-15 -6.77207e-15 
66 8.47375e-15 1.2019e-14 7.54707e-15 
70 7.90926e-15 1.03986e-14 1.36113e-15 
74 5.46986e-15 7.42664e-15 -1.05323e-15 
78 1.04338e-14 1.71373e-14 -9.06274e-15 
82 2.53744e-15 6.87814e-15 4.57432e-15 
86 3.31983e-15 1.23556e-14 2.59765e-15 
90 3.85905e-15 1.63436e-14 -3.13067e-15 
94 1.72277e-15 6.20066e-15 -3.10565e-15 
98 -8.02672e-16 6.50415e-15 4.78379e-15 
102 -1.34517e-15 6.39015e-15 2.38755e-15 
106 -4.32863e-16 7.54646e-15 -1.72552e-15 
110 -1.514e-16 4.78754e-15 -4.40981e-15 
114 -1.29797e-15 2.87672e-15 1.90213e-15 
118 -1.18395e-15 2.06912e-15 3.02131e-16 
122 -1.52107e-15 2.76165e-15 -5.44472e-16 
126 -5.54406e-16 1.08047e-15 -6.89487e-16 
130 8.04164e-15 6.33485e-15 9.01813e-15 
134 6.41691e-15 8.38552e-16 8.94232e-15 
138 5.59858e-15 -1.22829e-15 8.94037e-15 
142 7.87764e-15 -7.68453e-15 1.41648e-14 
146 1.13456e-15 2.95986e-15 5.28803e-15 
150 2.76461e-15 2.53241e-15 1.25625e-14 
154 2.58821e-15 -1.19414e-15 8.36366e-15 
158 2.85373e-15 -4.80502e-15 8.59255e-15 
162 -2.44102e-16 1.86058e-15 2.40024e-15 
166 -1.51332e-15 8.85647e-16 7.26566e-15 
170 -1.41954e-15 -2.25223e-15 8.28223e-15 
174 4.20366e-17 -2.7651e-15 3.63558e-15 
178 -8.34388e-16 5.00471e-16 6.85169e-16 
182 -1.06664e-15 5.51345e-16 2.11184e-15 
186 -1.49921e-15 -9.1105e-16 2.72356e-15 
190 -9.41698e-16 -1.54205e-15 1.58611e-15 
3 -1.25284e-15 1.01106e-15 1.57566e-15 
7 -1.77387e-16 3.38088e-16 1.68002e-16 
11 -3.61907e-16 2.50698e-16 -3.68847e-16 
15 -6.95123e-16 7.59284e-16 -8.76298e-16 
19 -4.34942e-16 4.382e-16 8.79598e-16 
23 1.3632e-17 1.76482e-16 2.69779e-16 
27 0 0 0 
31 -2.49809e-16 2.57987e-16 -6.19408e-16 
35 -4.14735e-16 -7.81768e-17 3.44506e-16 
39 -2.5323e-16 1.65569e-17 1.55503e-16 
43 -1.43354e-16 3.59974e-17 -1.80311e-16 
47 -5.18118e-16 4.22909e-17 -1.89373e-16 
51 -6.68222e-16 -1.04179e-15 1.75466e-16 
55 -7.38079e-16 -7.73273e-16 3.8362e-17 
59 -3.57999e-16 -3.79992e-16 -1.26253e-16 
63 -1.68923e-16 -4.16414e-16 -4.34306e-16 
67 6.12413e-15 -8.74037e-15 6.36339e-15 
71 5.01454e-15 -8.01086e-15 2.18772e-15 
75 1.03456e-14 -1.21876e-14 -3.52778e-15 
79 4.30162e-15 -5.58967e-15 -5.14604e-15 
83 2.56389e-15 -8.52448e-15 6.09763e-15 
87 4.42675e-15 -1.54868e-14 3.71883e-15 
91 3.04129e-15 -1.4994e-14 -4.85902e-15 
95 1.76596e-15 -7.24195e-15 -4.94141e-15 
99 2.74185e-16 -7.63659e-15 4.71187e-15 
103 -1.6416e-15 -1.09277e-14 1.29301e-15 
107 -8.19845e-16 -7.74625e-15 -2.09713e-15 
111 -1.48634e-15 -7.46382e-15 -4.9629e-15 
115 -2.25925e-15 -6.56377e-15 3.35411e-15 
119 -1.56516e-15 -3.29274e-15 1.64504e-15 
123 -7.36584e-16 -2.15693e-15 -4.41806e-16 
127 -1.2438e-15 -3.20592e-15 -1.91914e-15 
131 7.3506e-15 8.36198e-15 -9.32522e-15 
135 5.31205e-15 1.78876e-15 -6.87097e-15 
139 4.60524e-15 -1.52687e-15 -4.60586e-15 
143 6.56448e-15 -4.84467e-15 -7.77642e-15 
147 1.78693e-15 3.76359e-15 -4.84273e-15 
151 3.90432e-15 2.33246e-15 -1.26624e-14 
155 2.98563e-15 -2.85479e-15 -8.64866e-15 
159 2.09966e-15 -4.50164e-15 -6.56977e-15 
163 -1.23718e-15 4.44858e-15 -7.48883e-15 
167 -1.39948e-15 2.63931e-15 -9.1054e-15 
171 -9.30189e-16 -2.3314e-15 -9.78876e-15 
175 -7.23348e-16 -1.64149e-15 -2.31137e-15 
179 -1.99471e-15 4.16687e-15 -6.64268e-15 
183 -9.72665e-16 5.55827e-16 -1.50356e-15 
187 -1.0492e-15 -5.75959e-16 -3.01053e-15 
191 -2.24063e-16 -4.16896e-16 -4.88349e-16 
4 -7.63398e-16 8.72588e-16 6.57162e-16 
8 -9.43901e-16 1.28176e-15 1.33786e-16 
12 -2.57052e-16 1.85202e-16 -5.39565e-17 
16 -2.44295e-15 1.17322e-15 -1.36975e-15 
20 0 0 0 
24 0 0 0 
28 -5.05329e-16 6.10937e-19 -1.9852e-16 
32 -4.37361e-16 4.90131e-17 -2.85597e-16 
36 -7.16181e-16 -6.29854e-17 4.8069e-16 
40 -2.81519e-16 1.11168e-17 5.2487e-17 
44 0 0 0 
48 -5.31439e-16 -6.05763e-17 -2.6866e-16 
52 -9.89026e-16 -1.10047e-15 9.00096e-16 
56 -3.62941e-16 -3.72639e-16 2.63379e-16 
60 -1.44209e-15 -7.12985e-16 -5.34423e-16 
64 -7.55507e-16 -9.05196e-16 -4.23087e-16 
68 8.63638e-15 -1.05279e-14 6.61442e-15 
72 4.94308e-15 -7.58074e-15 1.67897e-15 
76 5.68925e-15 -9.0458e-15 -1.05235e-15 
80 6.48655e-15 -1.10344e-14 -5.71206e-15 
84 1.71908e-15 -9.35189e-15 4.71555e-15 
88 5.34924e-15 -1.59668e-14 4.17789e-15 
92 1.85527e-15 -8.95856e-15 -2.48879e-15 
96 1.26678e-15 -6.22027e-15 -3.90265e-15 
100 -9.50809e-16 -4.92873e-15 3.32867e-15 
104 -1.38923e-15 -8.58477e-15 1.82171e-15 
108 -9.35296e-16 -6.21534e-15 -1.88816e-15 
112 -1.04076e-15 -5.79918e-15 -3.99052e-15 
116 -9.98492e-16 -1.74185e-15 1.48676e-15 
120 -2.12868e-15 -2.91889e-15 9.84197e-16 
124 -6.01883e-16 -1.74876e-15 -6.0974e-16 
128 -1.63689e-15 -3.5953e-15 -2.81857e-15 
132 6.60561e-15 4.69218e-15 -8.05193e-15 
136 4.82285e-15 1.88559e-15 -7.39897e-15 
140 9.02405e-15 -2.41093e-15 -1.26882e-14 
144 1.0601e-14 -9.84148e-15 -1.75049e-14 
148 2.86136e-15 8.08332e-15 -1.22706e-14 
152 3.72523e-15 2.92387e-15 -1.56129e-14 
156 4.05724e-15 -2.32518e-15 -1.36916e-14 
160 2.87985e-15 -4.61484e-15 -7.90649e-15 
164 -1.32448e-16 2.9579e-15 -4.59578e-15 
168 -8.91156e-16 1.8206e-15 -8.08119e-15 
172 -1.87397e-15 -1.58627e-15 -8.70651e-15 
176 -4.95745e-16 -2.46732e-15 -3.95041e-15 
180 -6.45463e-16 1.06879e-15 -1.34141e-15 
184 -1.09325e-15 3.23898e-16 -1.87087e-15 
188 -6.99385e-16 -1.26418e-16 -1.62617e-15 
192 -1.74166e-15 -2.29078e-15 -3.35515e-15 
ITEM: TIMESTEP
28000
ITEM: NUMBER OF SURFS
192
ITEM: BOX BOUNDS oo rr rr
0 5e-06
0 5e-06
0 5e-06
ITEM: SURFS id f_f_drag_blocks[1] f_f_drag_blocks[2] f_f_drag_blocks[3] 
1 1.03156e-14 6.08752e-15 7.07994e-15 
5 1.0375e-14 6.4236e-15 2.93715e-15 
9 1.33925e-14 9.40559e-15 -3.44766e-15 
13 5.57507e-15 4.74922e-15 -4.41108e-15 
17 1.27718e-14 3.32369e-15 7.99712e-15 
21 1.99392e-14 4.28197e-15 4.81573e-15 
25 2.53736e-14 7.32739e-15 -5.03175e-15 
29 1.15979e-14 2.36405e-15 -7.6729e-15 
33 1.38382e-14 -3.21133e-15 8.37783e-15 
37 2.82204e-14 -5.73679e-15 5.66453e-15 
41 1.8974e-14 -4.25681e-15 -4.29906e-15 
45 1.32122e-14 -2.33254e-15 -7.28381e-15 
49 1.75038e-14 -8.66185e-15 1.06111e-14 
53 9.49083e-15 -5.09344e-15 2.13847e-15 
57 1.19608e-14 -7.22349e-15 -2.04439e-15 
61 7.14509e-15 -4.50438e-15 -4.53566e-15 
65 7.48399e-15 1.1417e-14 8.12849e-15 
69 7.40713e-15 1.04357e-14 2.71723e-15 
73 7.62278e-15 9.56629e-15 -2.12506e-15 
77 3.94597e-15 5.14646e-15 -3.36191e-15 
81 1.86842e-15 6.03531e-15 4.35029e-15 
85 3.50179e-15 1.1673e-14 3.10264e-15 
89 3.03868e-15 1.36367e-14 -2.11941e-15 
93 1.37444e-15 4.12936e-15 -2.64024e-15 
97 -1.61058e-15 9.70036e-15 5.57808e-15 
101 -2.48523e-15 9.34629e-15 2.6295e-15 
105 -1.29654e-15 5.98215e-15 -1.9967e-15 
109 -6.33964e-16 4.44308e-15 -3.05644e-15 
113 -2.05899e-15 4.43267e-15 2.69264e-15 
117 -1.27464e-15 2.26877e-15 2.05476e-16 
121 -1.48152e-15 2.03266e-15 -2.84683e-16 
125 -1.91961e-15 3.1507e-15 -1.98482e-15 
129 5.21166e-15 4.47312e-15 7.10171e-15 
133 4.38592e-15 2.23e-15 7.07684e-15 
137 6.62763e-15 -2.66899e-15 9.21316e-15 
141 6.00595e-15 -5.79525e-15 5.96958e-15 
145 2.37363e-15 5.83616e-15 8.48918e-15 
149 2.77467e-15 2.00127e-15 1.07023e-14 
153 5.65105e-15 -4.60589e-15 1.75956e-14 
157 2.75436e-15 -6.54949e-15 9.87607e-15 
161 -1.03061e-15 3.36315e-15 7.3123e-15 
165 -1.70798e-15 1.50054e-15 8.9262e-15 
169 -1.35098e-15 -1.24004e-15 7.7231e-15 
173 -3.70578e-16 -2.46079e-15 4.04373e-15 
177 -1.0156e-15 9.98323e-16 1.62518e-15 
181 -1.47281e-15 -1.17107e-16 3.15307e-15 
185 -9.92608e-16 -1.55173e-17 1.34916e-15 
189 -1.96648e-15 -2.47362e-15 4.29159e-15 
2 1.14636e-14 8.80247e-15 6.81587e-15 
6 1.24912e-14 8.24212e-15 2.56599e-15 
10 9.22666e-15 5.92401e-15 -2.00049e-15 
14 1.8577e-14 1.01827e-14 -9.35145e-15 
18 7.57687e-15 1.74412e-15 5.11437e-15 
22 3.11264e-14 8.23158e-15 5.43809e-15 
26 1.63654e-14 2.99307e-15 -4.14013e-15 
30 1.41922e-14 3.11133e-15 -8.10565e-15 
34 1.32365e-14 -3.39978e-15 9.23487e-15 
38 2.19992e-14 -5.21555e-15 4.47977e-15 
42 2.65751e-14 -4.56874e-15 -5.68497e-15 
46 1.48634e-14 -3.34013e-15 -1.13663e-14 
50 6.66921e-15 -5.29605e-15 5.42721e-15 
54 1.00846e-14 -7.1669e-15 1.50317e-15 
58 1.17312e-14 -7.89162e-15 -1.21743e-15 
62 1.08816e-14 -6.98026e-15 -7.25154e-15 
66 6.25379e-15 7.48441e-15 4.80738e-15 
70 7.76675e-15 9.25485e-15 2.06773e-15 
74 1.09904e-14 1.68254e-14 -3.80854e-15 
78 9.90399e-15 1.69252e-14 -9.31808e-15 
82 2.19512e-15 9.67501e-15 6.8944e-15 
86 3.75207e-15 1.57962e-14 3.41652e-15 
90 3.11602e-15 1.51844e-14 -4.15535e-15 
94 2.23232e-15 1.02922e-14 -6.17088e-15 
98 -1.76838e-15 7.59029e-15 4.20246e-15 
102 -1.58777e-15 6.51869e-15 1.65632e-15 
106 -8.2837e-16 8.01812e-15 -2.33468e-15 
110 -1.81778e-17 3.71827e-15 -2.34979e-15 
114 -1.04546e-15 1.22876e-15 1.21356e-15 
118 -1.65941e-15 1.90147e-15 6.29054e-16 
122 -1.13665e-15 2.27372e-15 -5.97941e-16 
126 -1.01754e-15 2.03847e-15 -9.56981e-16 
130 8.65318e-15 6.90875e-15 1.0285e-14 
134 5.89354e-15 2.06682e-15 7.95877e-15 
138 7.00179e-15 -2.38232e-15 1.12444e-14 
142 7.57755e-15 -7.92413e-15 1.31796e-14 
146 2.88952e-15 6.72546e-15 9.82198e-15 
150 3.66369e-15 2.21787e-15 1.29811e-14 
154 3.04984e-15 -2.63211e-15 1.18211e-14 
158 1.31496e-15 -3.28942e-15 5.65888e-15 
162 -1.29034e-15 4.02505e-15 5.5064e-15 
166 -1.2741e-15 1.86926e-15 6.58662e-15 
170 -9.57002e-16 -2.14461e-15 6.9451e-15 
174 -6.05064e-16 -4.76204e-15 6.81052e-15 
178 -6.29152e-16 8.79097e-16 9.07701e-16 
182 -1.55557e-15 1.0464e-15 1.92079e-15 
186 -1.06336e-15 -2.76457e-16 2.73746e-15 
190 -2.1455e-15 -2.52416e-15 4.0927e-15 
3 -4.78778e-16 6.11222e-16 3.94088e-16 
7 0 0 0 
11 2.43985e-17 1.46491e-16 -9.43719e-17 
15 -5.55948e-16 5.13922e-16 -5.11003e-16 
19 -8.57214e-16 1.99024e-16 8.56896e-16 
23 -7.44613e-16 4.97863e-16 2.0618e-16 
27 -5.00959e-16 2.40798e-16 -1.45721e-16 
31 -1.60876e-16 2.82517e-16 -3.67729e-16 
35 -1.23788e-15 -7.25126e-16 9.46184e-16 
39 -2.86936e-16 -1.38336e-16 7.26644e-17 
43 -6.37091e-17 -1.07483e-16 -1.4078e-16 
47 -3.86889e-16 3.11042e-17 -5.15562e-17 
51 -1.36976e-15 -1.36078e-15 3.63204e-16 
55 -2.01468e-16 -2.01951e-16 3.04621e-16 
59 -6.00612e-16 -6.09828e-16 -1.57685e-16 
63 -4.0403e-16 -1.90697e-16 -4.15865e-16 
67 6.76104e-15 -1.01972e-14 8.46466e-15 
71 8.96038e-15 -1.3534e-14 3.07163e-15 
75 7.7416e-15 -9.52649e-15 -2.21188e-15 
79 7.03364e-15 -7.87715e-15 -6.07051e-15 
83 2.30714e-15 -1.01943e-14 6.37051e-15 
87 3.50947e-15 -1.40538e-14 3.57712e-15 
91 4.6059e-15 -1.58777e-14 -2.32589e-15 
95 1.35867e-15 -6.66382e-15 -4.89573e-15 
99 -8.15564e-16 -4.30879e-15 2.69097e-15 
103 -1.17755e-15 -7.12792e-15 2.25783e-15 
107 -1.33855e-15 -7.24462e-15 -1.96414e-15 
111 -5.94781e-16 -4.44959e-15 -3.74228e-15 
115 -1.17156e-15 -3.83006e-15 1.48949e-15 
119 -2.05809e-15 -2.62145e-15 6.98551e-16 
123 -1.00323e-15 -2.74387e-15 1.18225e-17 
127 -1.30478e-15 -2.77043e-15 -1.30459e-15 
131 4.30881e-15 5.28931e-15 -6.17134e-15 
135 4.85445e-15 1.68516e-15 -6.98839e-15 
139 6.72191e-15 -3.14033e-15 -8.92564e-15 
143 6.42121e-15 -7.41621e-15 -7.62431e-15 
147 2.0852e-15 5.36522e-15 -6.09242e-15 
151 4.07052e-15 2.84041e-15 -1.34003e-14 
155 3.55337e-15 -2.84165e-15 -1.42221e-14 
159 2.4923e-15 -5.12843e-15 -6.71289e-15 
163 -1.10296e-17 2.83709e-15 -4.52545e-15 
167 -9.61824e-16 1.96867e-15 -9.95594e-15 
171 -1.65999e-15 -2.45217e-15 -1.02242e-14 
175 -3.64318e-16 -1.38554e-15 -2.3862e-15 
179 -2.6889e-15 2.07505e-15 -4.40215e-15 
183 -1.8892e-15 1.09532e-15 -4.77807e-15 
187 -5.11646e-16 4.64081e-17 -1.34191e-15 
191 -1.0498e-15 -1.10513e-15 -1.58701e-15 
4 -2.88265e-16 6.02537e-16 1.05112e-16 
8 -1.16837e-15 1.477e-15 5.35536e-16 
12 -9.12472e-16 5.31484e-16 2.14474e-16 
16 -1.04092e-15 3.21847e-16 -7.22435e-16 
20 -3.06158e-16 1.7705e-16 5.6406e-16 
24 0 0 0 
28 -1.91539e-16 -1.77766e-16 -1.78036e-17 
32 0 0 0 
36 -8.51558e-17 1.33066e-16 2.20295e-16 
40 -1.98816e-16 -1.20024e-16 1.45208e-16 
44 0 0 0 
48 -7.26818e-16 -2.44543e-16 -8.61967e-16 
52 -2.41105e-16 -4.42967e-16 3.53251e-16 
56 -2.25687e-16 -3.36295e-16 8.68775e-17 
60 -4.88217e-16 -3.36558e-16 -2.67208e-16 
64 -3.09181e-16 -6.87576e-17 -8.31253e-16 
68 8.25277e-15 -1.04294e-14 5.9167e-15 
72 6.95672e-15 -1.04414e-14 1.26695e-15 
76 7.00998e-15 -1.23831e-14 -2.98146e-15 
80 1.12505e-14 -1.94698e-14 -1.06046e-14 
84 2.53487e-15 -9.4314e-15 6.04128e-15 
88 6.01117e-15 -1.59774e-14 2.17203e-15 
92 1.67124e-15 -8.90403e-15 -1.60943e-15 
96 1.19758e-15 -3.17617e-15 -2.2354e-15 
100 -5.04433e-16 -4.93086e-15 3.7048e-15 
104 -1.27271e-15 -5.30676e-15 1.16399e-15 
108 -7.10925e-16 -5.59441e-15 -1.72361e-15 
112 1.82555e-16 -3.42507e-15 -2.9204e-15 
116 -1.06182e-15 -1.84665e-15 1.13407e-15 
120 -9.48275e-16 -1.4319e-15 1.86743e-16 
124 -4.14923e-16 -1.59533e-15 -4.29584e-16 
128 -1.33571e-15 -2.29376e-15 -2.40918e-15 
132 9.15366e-15 7.41088e-15 -1.09571e-14 
136 7.65785e-15 2.69044e-15 -1.05294e-14 
140 1.11972e-14 -3.08029e-15 -1.7994e-14 
144 1.00782e-14 -1.06939e-14 -1.75901e-14 
148 2.19618e-15 4.96469e-15 -6.56561e-15 
152 2.53535e-15 1.31668e-15 -8.54368e-15 
156 2.12518e-15 -1.37109e-15 -8.71656e-15 
160 1.60259e-15 -6.04922e-15 -7.70444e-15 
164 -1.37203e-15 3.16663e-15 -5.33598e-15 
168 -6.38053e-16 1.62042e-15 -6.00907e-15 
172 -1.15782e-15 -2.56144e-15 -9.79644e-15 
176 -5.26845e-16 -2.26777e-15 -3.95305e-15 
180 -1.54822e-15 3.03414e-15 -2.68858e-15 
184 -1.34813e-15 1.05021e-15 -2.53991e-15 
188 -1.85872e-15 -1.44668e-15 -4.05438e-15 
192 -1.2046e-15 -2.49377e-15 -2.94878e-15 
ITEM: TIMESTEP
29000
ITEM: NUMBER OF SURFS
192
ITEM: BOX BOUNDS oo rr rr
0 5e-06
0 5e-06
0 5e-06
ITEM: SURFS id f_f_drag_blocks[1] f_f_drag_blocks[2] f_f_drag_blocks[3] 
1 9.98704e-15 6.95031e-15 7.51682e-15 
5 9.34817e-15 6.84395e-15 3.26611e-15 
9 1.09886e-14 7.94451e-15 -3.18616e-15 
13 7.91917e-15 6.83408e-15 -6.50491e-15 
17 1.36171e-14 2.71184e-15 1.01038e-14 
21 2.20398e-14 5.40558e-15 4.58016e-15 
25 1.65726e-14 4.87054e-15 -4.05875e-15 
29 1.95913e-14 5.07756e-15 -1.35247e-14 
33 1.19921e-14 -3.33725e-15 6.75753e-15 
37 1.49887e-14 -2.61704e-15 4.01655e-15 
41 1.95913e-14 -3.32101e-15 -4.09925e-15 
45 1.23286e-14 -3.05123e-15 -7.15027e-15 
49 1.63922e-14 -8.92295e-15 9.53692e-15 
53 1.35643e-14 -9.02195e-15 3.26319e-15 
57 1.25159e-14 -8.77054e-15 -2.26028e-15 
61 8.27004e-15 -5.19122e-15 -4.03476e-15 
65 3.70655e-15 6.56649e-15 4.44917e-15 
69 8.69528e-15 1.23873e-14 3.6047e-15 
73 8.76928e-15 1.11535e-14 -3.40889e-15 
77 6.21817e-15 7.7554e-15 -6.13077e-15 
81 1.83758e-15 6.23257e-15 5.3805e-15 
85 2.59118e-15 1.15698e-14 2.93859e-15 
89 1.90455e-15 1.32095e-14 -3.89444e-15 
93 3.06738e-15 9.3149e-15 -6.92402e-15 
97 -4.72664e-16 4.18268e-15 2.72711e-15 
101 -4.385e-16 8.66547e-15 1.24328e-15 
105 -1.01799e-15 8.43108e-15 -1.65553e-15 
109 -1.9468e-15 7.35117e-15 -4.5489e-15 
113 -2.04566e-15 4.2251e-15 2.61065e-15 
117 -6.97602e-16 1.75819e-15 2.25997e-16 
121 -1.02197e-15 2.18412e-15 2.96181e-17 
125 -1.08341e-15 2.23579e-15 -1.16621e-15 
129 4.69828e-15 4.37669e-15 5.34562e-15 
133 6.19403e-15 3.22142e-15 9.15782e-15 
137 8.44505e-15 -3.13189e-15 1.18849e-14 
141 5.4036e-15 -5.84013e-15 5.65782e-15 
145 1.56418e-15 5.42486e-15 6.91491e-15 
149 3.26291e-15 3.37362e-15 1.28516e-14 
153 3.01303e-15 -2.36378e-15 9.59587e-15 
157 2.24276e-15 -5.68373e-15 7.75232e-15 
161 -9.65793e-16 4.45404e-15 5.39195e-15 
165 -1.16607e-15 1.5159e-15 5.71896e-15 
169 -1.57036e-15 -2.2331e-15 9.96253e-15 
173 -6.01186e-16 -2.23761e-15 3.18687e-15 
177 -3.15596e-15 3.72476e-15 7.22088e-15 
181 -1.32337e-15 6.1934e-16 2.62645e-15 
185 -1.05682e-15 -4.55327e-16 1.75249e-15 
189 -8.45512e-16 -8.66291e-16 1.05757e-15 
2 9.34902e-15 6.69611e-15 6.27807e-15 
6 1.39678e-14 1.0113e-14 2.98728e-15 
10 1.69716e-14 1.07974e-14 -3.69676e-15 
14 2.39451e-14 1.40884e-14 -1.49218e-14 
18 1.10678e-14 2.18608e-15 6.91063e-15 
22 2.05988e-14 4.41261e-15 5.80004e-15 
26 1.68508e-14 3.22349e-15 -3.94218e-15 
30 1.47603e-14 2.7416e-15 -9.93157e-15 
34 1.45885e-14 -4.3139e-15 1.01845e-14 
38 3.47565e-14 -6.55751e-15 7.46023e-15 
42 2.14263e-14 -4.32212e-15 -4.35722e-15 
46 7.73558e-15 -1.28746e-15 -5.80836e-15 
50 6.10786e-15 -6.22048e-15 4.45686e-15 
54 1.28843e-14 -9.9414e-15 2.84028e-15 
58 1.00408e-14 -6.17393e-15 -2.4021e-15 
62 1.23248e-14 -8.32694e-15 -8.696e-15 
66 8.67608e-15 1.08908e-14 9.32406e-15 
70 8.95446e-15 1.12476e-14 2.41143e-15 
74 5.74115e-15 8.69003e-15 -2.02924e-15 
78 8.04103e-15 1.22471e-14 -6.98874e-15 
82 4.01877e-15 1.15492e-14 7.74741e-15 
86 2.2202e-15 9.66894e-15 2.47272e-15 
90 4.03453e-15 1.84211e-14 -3.54345e-15 
94 2.10469e-15 6.53349e-15 -4.76052e-15 
98 -6.85809e-18 4.34765e-15 3.05736e-15 
102 -9.527e-16 8.38486e-15 2.00249e-15 
106 -1.0114e-15 6.40913e-15 -1.04813e-15 
110 -2.40714e-16 3.6975e-15 -2.56701e-15 
114 -9.95144e-16 1.42559e-15 1.22009e-15 
118 -2.119e-15 3.36307e-15 1.4295e-16 
122 -2.12118e-15 3.41106e-15 -3.47438e-17 
126 -3.22955e-15 4.68535e-15 -3.21863e-15 
130 1.04107e-14 8.65926e-15 1.31451e-14 
134 6.11308e-15 2.31824e-15 1.02299e-14 
138 6.3895e-15 -2.04313e-15 1.12996e-14 
142 1.02741e-14 -1.16004e-14 1.57581e-14 
146 1.92917e-15 5.07425e-15 8.38623e-15 
150 2.41528e-15 2.1404e-15 9.70104e-15 