ITEM: TIMESTEP
5000
ITEM: NUMBER OF SURFS
192
ITEM: BOX BOUNDS oo rr rr
0 0.0005
0 0.0005
0 0.0005
ITEM: SURFS id f_f_drag_blocks[1] f_f_drag_blocks[2] f_f_drag_blocks[3] 
1 0 0 0 
5 0 0 0 
9 0 0 0 
13 0 0 0 
17 0 0 0 
21 0 0 0 
25 0 0 0 
29 0 0 0 
33 0 0 0 
37 0 0 0 
41 0 0 0 
45 0 0 0 
49 0 0 0 
53 0 0 0 
57 0 0 0 
61 0 0 0 
65 0 0 0 
69 0 0 0 
73 0 0 0 
77 0 0 0 
81 0 0 0 
85 0 0 0 
89 0 0 0 
93 0 0 0 
97 0 0 0 
101 0 0 0 
105 0 0 0 
109 0 0 0 
113 0 0 0 
117 0 0 0 
121 0 0 0 
125 0 0 0 
129 0 0 0 
133 0 0 0 
137 0 0 0 
141 0 0 0 
145 0 0 0 
149 0 0 0 
153 0 0 0 
157 0 0 0 
161 0 0 0 
165 0 0 0 
169 0 0 0 
173 0 0 0 
177 0 0 0 
181 0 0 0 
185 0 0 0 
189 0 0 0 
2 0 0 0 
6 0 0 0 
10 0 0 0 
14 0 0 0 
18 0 0 0 
22 0 0 0 
26 0 0 0 
30 0 0 0 
34 0 0 0 
38 0 0 0 
42 0 0 0 
46 0 0 0 
50 0 0 0 
54 0 0 0 
58 0 0 0 
62 0 0 0 
66 0 0 0 
70 0 0 0 
74 0 0 0 
78 0 0 0 
82 0 0 0 
86 0 0 0 
90 0 0 0 
94 0 0 0 
98 0 0 0 
102 0 0 0 
106 0 0 0 
110 0 0 0 
114 0 0 0 
118 0 0 0 
122 0 0 0 
126 0 0 0 
130 0 0 0 
134 0 0 0 
138 0 0 0 
142 0 0 0 
146 0 0 0 
150 0 0 0 
154 0 0 0 
158 0 0 0 
162 0 0 0 
166 0 0 0 
170 0 0 0 
174 0 0 0 
178 0 0 0 
182 0 0 0 
186 0 0 0 
190 0 0 0 
3 0 0 0 
7 0 0 0 
11 0 0 0 
15 0 0 0 
19 0 0 0 
23 0 0 0 
27 0 0 0 
31 0 0 0 
35 0 0 0 
39 0 0 0 
43 0 0 0 
47 0 0 0 
51 0 0 0 
55 0 0 0 
59 0 0 0 
63 0 0 0 
67 0 0 0 
71 0 0 0 
75 0 0 0 
79 0 0 0 
83 0 0 0 
87 0 0 0 
91 0 0 0 
95 0 0 0 
99 0 0 0 
103 0 0 0 
107 0 0 0 
111 0 0 0 
115 0 0 0 
119 0 0 0 
123 0 0 0 
127 0 0 0 
131 0 0 0 
135 0 0 0 
139 0 0 0 
143 0 0 0 
147 0 0 0 
151 0 0 0 
155 0 0 0 
159 0 0 0 
163 0 0 0 
167 0 0 0 
171 0 0 0 
175 0 0 0 
179 0 0 0 
183 0 0 0 
187 0 0 0 
191 0 0 0 
4 0 0 0 
8 0 0 0 
12 0 0 0 
16 0 0 0 
20 0 0 0 
24 0 0 0 
28 0 0 0 
32 0 0 0 
36 0 0 0 
40 0 0 0 
44 0 0 0 
48 0 0 0 
52 0 0 0 
56 0 0 0 
60 0 0 0 
64 0 0 0 
68 0 0 0 
72 0 0 0 
76 0 0 0 
80 0 0 0 
84 0 0 0 
88 0 0 0 
92 0 0 0 
96 0 0 0 
100 0 0 0 
104 0 0 0 
108 0 0 0 
112 0 0 0 
116 0 0 0 
120 0 0 0 
124 0 0 0 
128 0 0 0 
132 0 0 0 
136 0 0 0 
140 0 0 0 
144 0 0 0 
148 0 0 0 
152 0 0 0 
156 0 0 0 
160 0 0 0 
164 0 0 0 
168 0 0 0 
172 0 0 0 
176 0 0 0 
180 0 0 0 
184 0 0 0 
188 0 0 0 
192 0 0 0 
ITEM: TIMESTEP
6000
ITEM: NUMBER OF SURFS
192
ITEM: BOX BOUNDS oo rr rr
0 0.0005
0 0.0005
0 0.0005
ITEM: SURFS id f_f_drag_blocks[1] f_f_drag_blocks[2] f_f_drag_blocks[3] 
1 1.1653e-10 7.47603e-11 9.01066e-11 
5 2.47256e-10 1.48347e-10 6.5157e-11 
9 3.62521e-10 2.5257e-10 -9.67761e-11 
13 1.32419e-10 9.01965e-11 -1.1343e-10 
17 2.14503e-10 4.83017e-11 1.42995e-10 
21 4.81589e-10 8.62602e-11 9.554e-11 
25 5.60798e-10 1.194e-10 -1.22801e-10 
29 3.20489e-10 8.19485e-11 -2.24307e-10 
33 2.27797e-10 -4.20432e-11 1.52387e-10 
37 3.63618e-10 -6.54468e-11 7.02237e-11 
41 5.01488e-10 -1.13927e-10 -9.56291e-11 
45 2.82571e-10 -6.40097e-11 -1.68292e-10 
49 1.45733e-10 -8.02905e-11 7.78656e-11 
53 2.20322e-10 -1.35111e-10 3.58573e-11 
57 2.91729e-10 -1.9375e-10 -4.70823e-11 
61 1.68206e-10 -1.14419e-10 -1.01402e-10 
65 6.68342e-11 9.57083e-11 7.23106e-11 
69 1.31395e-10 1.90165e-10 4.3913e-11 
73 1.99239e-10 2.35849e-10 -6.10909e-11 
77 9.25511e-11 9.9468e-11 -8.04334e-11 
81 5.21919e-11 1.18526e-10 8.20667e-11 
85 6.78544e-11 2.14084e-10 5.74026e-11 
89 7.56632e-11 2.63772e-10 -5.74336e-11 
93 4.54507e-11 1.34784e-10 -9.4705e-11 
97 -7.73754e-12 2.45841e-11 1.30308e-11 
101 -8.54138e-12 6.71912e-11 1.78433e-11 
105 -1.39811e-11 1.16425e-10 -1.54473e-11 
109 -3.28221e-12 4.05394e-11 -2.79242e-11 
113 -4.39136e-12 7.38687e-12 4.47742e-12 
117 -1.62452e-11 2.82284e-11 4.42059e-12 
121 -8.61554e-12 2.38503e-11 -6.77352e-12 
125 -1.01369e-11 1.65124e-11 -8.61471e-12 
129 4.06045e-11 4.58908e-11 5.66437e-11 
133 9.33394e-11 4.35845e-11 1.37098e-10 
137 1.16971e-10 -4.43787e-11 1.76949e-10 
141 1.33066e-10 -1.26196e-10 1.31412e-10 
145 2.28097e-11 6.14809e-11 8.65204e-11 
149 6.09135e-11 3.62309e-11 2.04348e-10 
153 6.50316e-11 -5.94256e-11 2.17157e-10 
157 2.57161e-11 -5.5931e-11 8.3233e-11 
161 3.77733e-13 3.34851e-11 5.12516e-11 
165 -9.94191e-12 2.60689e-11 1.19618e-10 
169 -1.35654e-11 -2.89803e-11 1.07528e-10 
173 -9.48467e-12 -2.66178e-11 3.84865e-11 
177 -5.09491e-12 9.46128e-12 1.44943e-11 
181 -8.82906e-12 -4.57974e-13 1.52146e-11 
185 -2.1635e-11 -4.31229e-12 2.20063e-11 
189 -9.56421e-12 -1.60509e-11 1.902e-11 
2 1.4428e-10 1.08576e-10 8.64125e-11 
6 1.86087e-10 1.28978e-10 4.18419e-11 
10 2.50906e-10 1.58642e-10 -5.45496e-11 
14 1.17487e-10 7.02143e-11 -6.07908e-11 
18 2.02871e-10 3.67519e-11 1.14946e-10 
22 4.7923e-10 1.0719e-10 1.12789e-10 
26 4.68505e-10 8.30785e-11 -8.23046e-11 
30 2.35833e-10 4.58791e-11 -1.38642e-10 
34 2.61138e-10 -6.03327e-11 1.59116e-10 
38 4.2456e-10 -9.84052e-11 1.02571e-10 
42 4.02979e-10 -7.87614e-11 -7.70368e-11 
46 1.75887e-10 -3.3688e-11 -1.14826e-10 
50 8.87295e-11 -7.32028e-11 7.23344e-11 
54 2.50137e-10 -1.7587e-10 7.37779e-11 
58 2.59853e-10 -1.37166e-10 -6.64448e-11 
62 1.32434e-10 -8.24614e-11 -9.86647e-11 
66 4.19875e-11 4.74669e-11 3.31506e-11 
70 1.05386e-10 1.38416e-10 3.13834e-11 
74 1.04322e-10 1.36281e-10 -2.76827e-11 
78 7.44272e-11 1.03426e-10 -5.78466e-11 
82 4.38595e-11 1.23247e-10 8.06228e-11 
86 6.74651e-11 2.05031e-10 2.67569e-11 
90 5.53231e-11 1.96243e-10 -3.69656e-11 
94 2.77658e-11 7.49547e-11 -4.8699e-11 
98 -4.87436e-12 5.4156e-11 4.72674e-11 
102 -1.74606e-11 8.78388e-11 2.17442e-11 
106 -1.5422e-11 9.60721e-11 -2.49061e-11 
110 -3.97967e-12 3.71926e-11 -2.9323e-11 
114 -9.94725e-12 1.3164e-11 1.13039e-11 
118 -1.21788e-11 1.72144e-11 3.48054e-12 
122 -1.19358e-11 1.79485e-11 -2.03327e-12 
126 -1.81811e-11 2.83554e-11 -1.71339e-11 
130 1.1455e-10 8.3683e-11 1.37742e-10 
134 1.41632e-10 5.06482e-11 1.72283e-10 
138 9.56778e-11 -2.99923e-11 1.38953e-10 
142 4.93583e-11 -3.9703e-11 6.22854e-11 
146 3.77176e-11 7.75345e-11 1.10736e-10 
150 5.33974e-11 4.71563e-11 1.68929e-10 
154 5.2924e-11 -4.05456e-11 1.75409e-10 
158 3.12328e-11 -8.0265e-11 1.20084e-10 
162 -1.53531e-11 6.42317e-11 7.85232e-11 
166 -1.08328e-11 1.16252e-11 7.46858e-11 
170 -2.86475e-12 -1.60652e-11 1.0063e-10 
174 -3.86639e-12 -1.31212e-11 2.58636e-11 
178 -5.68827e-12 4.66552e-12 1.10622e-11 
182 -1.08471e-11 3.77024e-12 2.13423e-11 
186 -1.69514e-11 -6.76435e-12 2.37891e-11 
190 -1.12168e-11 -1.81417e-11 2.82146e-11 
3 -3.14276e-12 9.48209e-13 4.82053e-12 
7 -8.7422e-12 9.08623e-12 5.03749e-12 
11 -1.20393e-11 1.19966e-11 -1.6623e-12 
15 -5.85068e-12 1.34165e-11 -9.37648e-12 
19 -9.06371e-12 2.42569e-12 6.29877e-12 
23 -1.32672e-12 3.55963e-13 -1.20375e-12 
27 -1.63217e-11 2.54031e-12 -2.22922e-14 
31 -3.4181e-12 2.32517e-12 -4.44267e-12 
35 -6.14449e-12 8.07606e-13 7.34145e-12 
39 -7.34163e-12 -7.75374e-13 1.9143e-12 
43 -6.10761e-12 -4.45097e-12 7.80224e-13 
47 -1.37337e-12 -2.87652e-12 -2.03541e-12 
51 -4.55069e-12 -2.06305e-12 2.20319e-12 
55 -7.21637e-12 -8.82785e-12 4.41285e-12 
59 -1.00709e-11 -9.06579e-12 -2.00163e-12 
63 -1.21642e-11 -8.81993e-12 -6.11196e-12 
67 9.97254e-11 -1.31816e-10 1.06107e-10 
71 9.99037e-11 -1.62624e-10 3.16629e-11 
75 1.15538e-10 -1.68921e-10 -4.96249e-11 
79 8.87379e-11 -9.89587e-11 -7.54648e-11 
83 1.654e-11 -7.33214e-11 5.37596e-11 
87 6.58598e-11 -2.1875e-10 4.44617e-11 
91 5.08165e-11 -1.58907e-10 -3.70544e-11 
95 4.09201e-11 -1.12213e-10 -7.44763e-11 
99 -2.92642e-12 -3.29829e-11 1.55942e-11 
103 -1.5504e-11 -8.11207e-11 1.67828e-11 
107 -1.20256e-11 -6.95495e-11 -1.87515e-11 
111 -7.02575e-12 -3.1871e-11 -1.31292e-11 
115 -1.93158e-12 -6.59634e-12 6.37454e-13 
119 -8.80832e-12 -1.35871e-11 1.7246e-12 
123 -1.6013e-11 -3.10206e-11 -7.05479e-12 
127 -1.02829e-11 -2.01684e-11 -1.39415e-11 
131 6.17935e-11 5.38027e-11 -7.41316e-11 
135 1.54751e-10 3.34501e-11 -2.0584e-10 
139 1.15155e-10 -4.76115e-11 -1.51445e-10 
143 7.33675e-11 -7.43911e-11 -8.86972e-11 
147 1.84935e-11 6.72553e-11 -9.44397e-11 
151 5.16514e-11 5.8391e-11 -1.85878e-10 
155 5.05362e-11 -5.17681e-11 -1.9045e-10 
159 4.57879e-11 -8.42944e-11 -1.36008e-10 
163 -2.88341e-12 1.74777e-11 -2.99655e-11 
167 -1.40255e-11 1.24987e-11 -7.67262e-11 
171 -2.1058e-11 -2.29604e-11 -1.03474e-10 
175 -1.34708e-11 -5.33549e-11 -6.5647e-11 
179 -1.27418e-11 1.25076e-11 -2.89401e-11 
183 -8.66798e-12 7.62405e-12 -1.9276e-11 
187 -1.31268e-11 4.69552e-13 -1.92512e-11 
191 -9.7478e-12 -4.43348e-12 -8.55658e-12 
4 -4.94451e-12 2.52698e-12 3.75758e-12 
8 -3.11103e-12 2.65563e-12 -3.30923e-13 
12 -8.50111e-12 4.62046e-12 -3.99618e-12 
16 -3.56341e-12 1.60792e-12 -2.41333e-12 
20 -1.40553e-11 7.55634e-12 8.78026e-12 
24 -2.13545e-12 1.31787e-12 1.47471e-12 
28 -4.02118e-12 2.8718e-12 -2.87102e-12 
32 -1.70929e-12 2.36873e-12 -1.6515e-12 
36 -8.01092e-12 -3.79641e-12 6.20961e-12 
40 -5.64949e-12 -4.11264e-12 -1.18175e-12 
44 -1.10891e-11 -4.11476e-12 -1.36862e-12 
48 -6.09014e-12 1.12517e-12 -4.42113e-12 
52 -4.11494e-12 -3.96821e-12 6.51529e-12 
56 -1.07964e-11 -1.11158e-11 7.20642e-13 
60 -1.98226e-11 -1.38968e-11 -4.04587e-12 
64 -1.21647e-11 -1.12963e-11 -1.18095e-11 
68 9.87433e-11 -1.09832e-10 6.81766e-11 
72 1.18783e-10 -1.54147e-10 2.1374e-11 
76 1.17616e-10 -1.64335e-10 -4.07063e-11 
80 4.20519e-11 -6.92885e-11 -4.47612e-11 
84 3.29631e-11 -1.10698e-10 7.39861e-11 
88 6.96546e-11 -1.96714e-10 3.44481e-11 
92 4.19551e-11 -1.43182e-10 -3.25422e-11 
96 2.42364e-11 -7.50344e-11 -5.23375e-11 
100 -8.00018e-12 -6.37503e-11 3.55621e-11 
104 -1.15389e-11 -1.15166e-10 2.70639e-11 
108 9.30971e-13 -9.96474e-11 -2.85692e-11 
112 -8.8337e-12 -4.48238e-11 -2.43543e-11 
116 -7.97033e-12 -2.01974e-11 1.19094e-11 
120 -2.04906e-11 -3.21154e-11 1.02578e-11 
124 -1.63662e-11 -4.08091e-11 -8.22241e-12 
128 -7.40787e-12 -1.75723e-11 -1.62668e-11 
132 9.30055e-11 7.39994e-11 -1.04421e-10 
136 1.34413e-10 3.3551e-11 -1.75976e-10 
140 9.70459e-11 -2.6798e-11 -1.21362e-10 
144 5.33783e-11 -4.59558e-11 -7.35972e-11 
148 3.67324e-11 5.30207e-11 -8.82805e-11 
152 4.36846e-11 2.95785e-11 -1.64151e-10 
156 4.60046e-11 -4.65317e-11 -1.95777e-10 
160 1.90068e-11 -3.42594e-11 -6.06403e-11 
164 -1.00911e-11 4.85469e-11 -6.71862e-11 
168 -3.28866e-11 3.47232e-11 -1.62938e-10 
172 -1.61849e-11 -2.86278e-11 -1.09605e-10 
176 -9.81954e-12 -5.76363e-11 -6.89996e-11 
180 -5.11128e-12 4.27149e-12 -7.36062e-12 
184 -1.43128e-11 6.88057e-12 -3.24523e-11 
188 -1.22669e-11 -6.2999e-12 -2.18956e-11 
192 -1.26399e-11 -1.11649e-11 -1.87887e-11 
ITEM: TIMESTEP
7000
ITEM: NUMBER OF SURFS
192
ITEM: BOX BOUNDS oo rr rr
0 0.0005
0 0.0005
0 0.0005
ITEM: SURFS id f_f_drag_blocks[1] f_f_drag_blocks[2] f_f_drag_blocks[3] 
1 1.21561e-10 7.19832e-11 9.06361e-11 
5 2.42666e-10 1.54512e-10 6.53623e-11 
9 1.92901e-10 1.27298e-10 -4.37342e-11 
13 1.34339e-10 1.06156e-10 -9.54448e-11 
17 1.97713e-10 3.92146e-11 1.33889e-10 
21 6.36998e-10 1.32544e-10 1.40061e-10 
25 5.67178e-10 1.20681e-10 -1.23074e-10 
29 2.90748e-10 6.75583e-11 -1.92254e-10 
33 2.73836e-10 -6.73847e-11 1.75467e-10 
37 5.03669e-10 -8.82534e-11 8.40684e-11 
41 4.57811e-10 -1.09811e-10 -1.10885e-10 
45 3.40207e-10 -7.221e-11 -2.13193e-10 
49 1.54096e-10 -7.74842e-11 7.3952e-11 
53 2.02035e-10 -1.33866e-10 2.10431e-11 
57 2.144e-10 -1.57157e-10 -5.09655e-11 
61 1.0459e-10 -6.95283e-11 -5.16183e-11 
65 5.64818e-11 6.90779e-11 5.91924e-11 
69 1.36293e-10 1.84381e-10 5.34563e-11 
73 1.49323e-10 1.82729e-10 -5.38854e-11 
77 1.08105e-10 1.16986e-10 -1.00064e-10 
81 2.29258e-11 9.49512e-11 6.11333e-11 
85 4.15807e-11 1.60858e-10 4.49147e-11 
89 9.15219e-11 2.90881e-10 -6.96141e-11 
93 5.79583e-11 1.67112e-10 -1.1124e-10 
97 -8.49053e-12 5.81934e-11 3.71449e-11 
101 -5.10423e-12 8.23712e-11 2.30518e-11 
105 -1.72812e-11 8.81366e-11 -2.04729e-11 
109 -2.5635e-12 4.57584e-11 -2.41926e-11 
113 -7.38138e-12 1.35977e-11 7.56905e-12 
117 -1.11544e-11 1.8129e-11 7.28268e-12 
121 -9.15823e-13 9.88469e-13 -2.47139e-13 
125 -3.78911e-12 1.47378e-11 -1.03088e-11 
129 7.89498e-11 9.31967e-11 1.22172e-10 
133 9.44978e-11 3.2575e-11 1.26066e-10 
137 1.66945e-10 -5.45558e-11 2.15669e-10 
141 9.49359e-11 -7.75152e-11 1.0101e-10 
145 2.44013e-11 6.2409e-11 8.00073e-11 
149 5.02368e-11 3.51714e-11 1.66181e-10 
153 5.76554e-11 -4.34631e-11 1.87277e-10 
157 3.37555e-11 -5.97026e-11 9.49264e-11 
161 -9.9576e-12 3.46495e-11 6.1975e-11 
165 -1.6941e-12 1.97183e-11 8.26038e-11 
169 -1.742e-11 -1.81607e-11 1.04264e-10 
173 -1.72674e-11 -5.54746e-11 8.02958e-11 
177 -7.32337e-12 1.32087e-11 1.47517e-11 
181 -8.50779e-12 2.18961e-12 1.68745e-11 
185 -1.00629e-11 -3.8396e-12 2.05656e-11 
189 -2.04822e-12 -9.48596e-12 1.57547e-11 
2 1.28415e-10 9.40518e-11 7.31777e-11 
6 2.01699e-10 1.38013e-10 3.78946e-11 
10 2.20057e-10 1.16132e-10 -4.52765e-11 
14 1.33596e-10 5.9725e-11 -7.71509e-11 
18 2.56549e-10 4.82089e-11 1.60942e-10 
22 4.63327e-10 9.74597e-11 8.61721e-11 
26 3.99817e-10 7.25459e-11 -8.59966e-11 
30 2.82785e-10 4.90789e-11 -1.64723e-10 
34 3.40011e-10 -7.40229e-11 2.16019e-10 
38 5.72192e-10 -1.42232e-10 1.25776e-10 
42 6.30309e-10 -1.40078e-10 -1.33938e-10 
46 1.7498e-10 -3.1607e-11 -1.2047e-10 
50 1.21906e-10 -8.45082e-11 9.78407e-11 
54 1.77853e-10 -1.13576e-10 4.62373e-11 
58 3.42718e-10 -2.30257e-10 -8.78918e-11 
62 9.09615e-11 -6.01843e-11 -7.29884e-11 
66 8.94432e-11 9.74487e-11 6.48833e-11 
70 1.37505e-10 1.59361e-10 3.6246e-11 
74 9.58772e-11 1.24571e-10 -2.61849e-11 
78 5.96722e-11 8.69132e-11 -5.62321e-11 
82 5.81581e-11 1.79929e-10 1.10481e-10 
86 4.4744e-11 1.83994e-10 2.89089e-11 
90 5.24345e-11 1.83356e-10 -3.44039e-11 
94 1.14501e-11 5.06899e-11 -2.88249e-11 
98 -4.44284e-12 6.27535e-11 4.82142e-11 
102 -2.46133e-11 1.31088e-10 3.61657e-11 
106 -9.71543e-12 8.7287e-11 -3.15967e-11 
110 -3.87607e-12 4.14648e-11 -3.06326e-11 
114 -1.09047e-11 1.93506e-11 1.9782e-11 
118 -1.00644e-11 1.75767e-11 1.73511e-12 
122 -9.44659e-12 2.50289e-11 -8.03538e-12 
126 -3.56349e-12 1.5997e-11 -1.21786e-11 
130 9.25919e-11 7.29454e-11 1.23508e-10 
134 9.5832e-11 2.15644e-11 1.12517e-10 
138 7.00858e-11 -2.7562e-11 1.20301e-10 
142 5.12713e-11 -4.88858e-11 7.80982e-11 
146 5.38935e-11 8.58205e-11 1.41501e-10 
150 5.93477e-11 5.0053e-11 2.4188e-10 
154 6.25135e-11 -3.58243e-11 1.98815e-10 
158 2.9315e-11 -6.71729e-11 9.06178e-11 
162 -7.97004e-12 6.27423e-11 7.56815e-11 
166 -1.44114e-11 9.82268e-12 8.92448e-11 
170 -1.61979e-11 -2.97203e-11 1.18507e-10 
174 -1.59444e-11 -5.59115e-11 7.06597e-11 
178 -1.24134e-11 1.12755e-11 1.62209e-11 
182 -1.25862e-11 5.17688e-12 2.10289e-11 
186 -1.14868e-11 -7.10786e-12 2.80288e-11 
190 -4.17394e-12 -1.33373e-11 1.3684e-11 
3 -5.97632e-12 8.65807e-12 5.87037e-12 
7 -8.3144e-12 5.44342e-12 5.33534e-12 
11 -1.47135e-11 1.13708e-11 -4.79191e-13 
15 -1.02062e-11 7.35882e-12 -5.68515e-12 
19 -1.12576e-11 3.58682e-12 1.329e-11 
23 -8.10923e-12 5.10487e-12 2.76217e-12 
27 -6.71513e-12 3.37643e-14 -2.48304e-12 
31 -1.57298e-11 1.16675e-13 -1.11119e-11 
35 -7.94994e-12 -2.22005e-12 8.10303e-12 
39 -6.93591e-12 1.10984e-12 1.54442e-12 
43 -1.11259e-11 -6.53856e-12 5.0505e-14 
47 -1.42643e-11 -2.64284e-12 -8.11211e-12 
51 -4.70326e-12 -2.7233e-12 1.92693e-12 
55 -3.79287e-12 -9.91348e-13 7.76472e-13 
59 -1.71513e-11 -1.39502e-11 -2.78714e-13 
63 -5.19287e-12 -4.44788e-12 -3.20743e-12 
67 5.96364e-11 -8.92975e-11 7.12317e-11 
71 1.48512e-10 -2.03504e-10 5.59735e-11 
75 1.33861e-10 -1.41415e-10 -3.96404e-11 
79 9.52692e-11 -1.05781e-10 -7.80316e-11 
83 3.83911e-11 -1.03521e-10 9.87134e-11 
87 3.96839e-11 -1.7159e-10 4.13607e-11 
91 6.04694e-11 -1.75936e-10 -5.45761e-11 
95 6.68307e-11 -1.57308e-10 -1.13904e-10 
99 -5.26131e-12 -1.42121e-11 1.65268e-11 
103 -1.20705e-11 -8.98294e-11 1.07152e-11 
107 -1.85247e-11 -9.88197e-11 -2.14624e-11 
111 -6.15902e-12 -4.94881e-11 -3.70729e-11 
115 -7.43818e-12 -5.44681e-12 6.51939e-12 
119 -1.08574e-11 -3.20152e-11 8.26335e-12 
123 -6.45697e-12 -1.41972e-11 -3.85599e-12 
127 -6.16222e-12 -7.80329e-12 -5.16244e-12 
131 5.48582e-11 5.02811e-11 -6.99022e-11 
135 1.75855e-10 6.10477e-11 -2.48496e-10 
139 1.23992e-10 -2.67658e-11 -1.6012e-10 
143 1.17933e-10 -1.01682e-10 -1.17309e-10 
147 2.1437e-11 5.67731e-11 -8.72569e-11 
151 6.97643e-11 5.56237e-11 -2.3804e-10 
155 7.11303e-11 -5.087e-11 -2.3804e-10 
159 5.56413e-11 -1.16494e-10 -1.41826e-10 
163 -1.52582e-12 5.14462e-11 -7.23556e-11 
167 -1.32183e-11 1.89882e-11 -8.87772e-11 
171 -2.03361e-11 -2.67888e-11 -1.12914e-10 
175 -1.48302e-11 -3.39638e-11 -3.91925e-11 
179 -9.00012e-12 1.42348e-11 -1.56634e-11 
183 -9.81966e-12 1.01116e-11 -1.74994e-11 
187 -1.63842e-11 2.88892e-12 -1.71749e-11 
191 -7.44513e-12 -9.49348e-12 -1.38474e-11 
4 -1.33526e-11 1.4049e-11 9.50721e-12 
8 -1.14747e-11 1.28458e-11 3.38645e-12 
12 -1.66376e-11 1.16521e-11 -2.15194e-12 
16 -9.33631e-12 5.30255e-12 -6.46078e-12 
20 -1.21337e-11 4.23826e-12 6.64703e-12 
24 -6.14115e-12 5.04238e-12 1.10687e-12 
28 -2.07234e-12 6.13414e-13 -5.16834e-13 
32 -4.05984e-12 1.81332e-12 -3.67214e-12 
36 -9.48507e-12 -3.56395e-12 7.47516e-12 
40 -1.65508e-11 -6.01481e-12 7.07218e-12 
44 -4.63778e-12 -1.55786e-12 -7.99782e-13 
48 -8.78218e-12 -3.01637e-12 -6.88202e-12 
52 -5.72273e-12 -3.83981e-12 5.50445e-12 
56 -1.38299e-11 -2.26878e-11 5.0129e-12 
60 -5.76203e-12 -4.49583e-12 -1.05383e-12 
64 -2.15662e-12 -2.15902e-12 -4.10165e-13 
68 7.48375e-11 -9.6771e-11 5.36312e-11 
72 1.28134e-10 -1.7224e-10 3.11672e-11 
76 1.26766e-10 -1.83343e-10 -4.43431e-11 
80 7.27179e-11 -1.18646e-10 -7.87412e-11 
84 4.07886e-11 -1.28015e-10 7.21768e-11 
88 6.21382e-11 -1.88087e-10 3.81783e-11 
92 4.36735e-11 -1.64358e-10 -3.28776e-11 
96 2.80067e-11 -9.53855e-11 -6.131e-11 
100 -1.38327e-11 -7.06347e-11 4.30948e-11 
104 -1.57916e-11 -1.10209e-10 3.31392e-11 
108 -8.62205e-12 -6.14677e-11 -1.87507e-11 
112 -7.95825e-12 -5.51376e-11 -3.90974e-11 
116 -1.17753e-11 -1.57298e-11 1.3036e-11 
120 -1.08435e-11 -2.03646e-11 8.09256e-12 
124 -1.39582e-11 -3.41529e-11 -7.90675e-12 
128 -6.25735e-12 -8.38817e-12 -9.33903e-12 
132 7.51706e-11 5.27086e-11 -8.73694e-11 
136 1.28328e-10 3.75784e-11 -1.74941e-10 
140 7.60208e-11 -3.13199e-11 -1.15593e-10 
144 3.88381e-11 -4.04966e-11 -5.77322e-11 
148 2.97538e-11 6.16978e-11 -8.72434e-11 
152 4.48068e-11 2.84106e-11 -1.35792e-10 
156 5.85549e-11 -2.71119e-11 -1.8106e-10 
160 1.58116e-11 -4.70497e-11 -7.96888e-11 
164 -2.47605e-12 2.44579e-11 -3.85916e-11 
168 -6.66923e-12 1.87582e-11 -8.71836e-11 
172 -1.2595e-11 -3.64409e-11 -1.19486e-10 
176 -2.68101e-12 -1.70054e-11 -2.89055e-11 
180 -6.14265e-12 2.64579e-12 -7.4733e-12 
184 -8.39585e-12 6.55262e-12 -1.89752e-11 
188 -1.67769e-11 -4.30625e-12 -1.99887e-11 
192 -8.76183e-12 -1.37196e-11 -1.71607e-11 
ITEM: TIMESTEP
8000
ITEM: NUMBER OF SURFS
192
ITEM: BOX BOUNDS oo rr rr
0 0.0005
0 0.0005
0 0.0005
ITEM: SURFS id f_f_drag_blocks[1] f_f_drag_blocks[2] f_f_drag_blocks[3] 
1 1.32233e-10 7.71121e-11 9.3893e-11 
5 2.64623e-10 1.71645e-10 6.69553e-11 
9 2.37416e-10 1.71052e-10 -6.86436e-11 
13 1.0875e-10 9.51759e-11 -8.85889e-11 
17 1.87601e-10 4.01312e-11 1.34531e-10 
21 4.46807e-10 9.52775e-11 1.08498e-10 
25 6.81053e-10 1.78626e-10 -1.54052e-10 
29 1.97811e-10 4.50762e-11 -1.41007e-10 
33 2.91334e-10 -5.28109e-11 1.7599e-10 
37 4.39497e-10 -8.01448e-11 8.71624e-11 
41 5.41732e-10 -1.30891e-10 -1.11006e-10 
45 2.57677e-10 -6.43035e-11 -1.50652e-10 
49 1.0139e-10 -5.49195e-11 5.36005e-11 
53 1.43596e-10 -9.03096e-11 3.26883e-11 
57 1.92538e-10 -1.42187e-10 -4.58164e-11 
61 1.65038e-10 -1.26987e-10 -9.4365e-11 
65 6.74529e-11 9.96697e-11 7.67837e-11 
69 1.56108e-10 2.29442e-10 8.64637e-11 
73 1.6886e-10 2.07495e-10 -5.31823e-11 
77 1.01296e-10 1.11513e-10 -9.77136e-11 
81 2.4132e-11 8.35552e-11 5.68252e-11 
85 4.14917e-11 1.6518e-10 3.98018e-11 
89 7.16458e-11 2.45409e-10 -5.47731e-11 
93 4.51139e-11 1.09202e-10 -9.03371e-11 
97 -8.33975e-12 5.92931e-11 4.41016e-11 
101 -1.24139e-11 9.20843e-11 1.85095e-11 
105 -1.33268e-11 8.53579e-11 -1.91674e-11 
109 -6.41391e-12 4.26532e-11 -2.87242e-11 
113 -1.2559e-11 2.04328e-11 1.46069e-11 
117 -1.25051e-11 2.24084e-11 5.62057e-12 
121 -1.07727e-11 2.0659e-11 -1.89689e-12 
125 -5.60969e-12 1.17573e-11 -6.156e-12 
129 8.33259e-11 7.96572e-11 1.00738e-10 
133 1.11686e-10 3.52368e-11 1.59352e-10 
137 1.28424e-10 -3.23777e-11 1.64273e-10 
141 8.05069e-11 -7.13647e-11 8.54598e-11 
145 2.28345e-11 6.23556e-11 7.74105e-11 
149 4.15826e-11 3.90826e-11 1.55704e-10 
153 6.64086e-11 -6.38182e-11 2.44399e-10 
157 5.84e-11 -1.37427e-10 1.73048e-10 
161 -5.83154e-12 3.12012e-11 5.62578e-11 
165 -1.38869e-11 1.39761e-11 6.74833e-11 
169 -2.39033e-11 -2.74968e-11 9.27376e-11 
173 -7.22798e-13 -3.01076e-11 4.92137e-11 
177 -5.45152e-12 1.03808e-11 1.42059e-11 
181 -7.09743e-12 3.43114e-12 1.10968e-11 
185 -1.95014e-12 -1.78994e-12 3.87592e-12 
189 -1.47529e-11 -2.09906e-11 2.80493e-11 
2 1.65111e-10 1.26436e-10 1.08454e-10 
6 1.27619e-10 8.01742e-11 1.96902e-11 
10 2.48445e-10 1.50069e-10 -4.93056e-11 
14 8.9402e-11 4.77968e-11 -5.02871e-11 
18 2.29378e-10 5.61748e-11 1.30641e-10 
22 5.35701e-10 1.23481e-10 8.8722e-11 
26 5.35788e-10 1.14014e-10 -1.04298e-10 
30 2.27739e-10 3.74637e-11 -1.26385e-10 
34 3.30061e-10 -8.44811e-11 2.25342e-10 
38 5.48378e-10 -1.26947e-10 1.33528e-10 
42 4.69829e-10 -9.52273e-11 -1.02529e-10 
46 2.13052e-10 -4.24325e-11 -1.34882e-10 
50 1.42734e-10 -1.09527e-10 1.07561e-10 
54 2.25289e-10 -1.51051e-10 4.63865e-11 
58 2.26444e-10 -1.37592e-10 -4.84492e-11 
62 1.15596e-10 -7.39732e-11 -7.81727e-11 
66 8.88059e-11 1.07929e-10 7.20997e-11 
70 1.44435e-10 1.6891e-10 3.6008e-11 
74 1.04995e-10 1.46311e-10 -3.06856e-11 
78 4.48937e-11 7.09795e-11 -3.6788e-11 
82 4.53418e-11 1.41431e-10 9.05968e-11 
86 5.44111e-11 1.84216e-10 3.22415e-11 
90 6.45166e-11 1.9055e-10 -3.99457e-11 
94 2.4289e-11 9.50455e-11 -5.62256e-11 
98 -8.97243e-12 3.89993e-11 2.58442e-11 
102 -9.89668e-12 6.44092e-11 2.34102e-11 
106 -1.25162e-11 9.20203e-11 -1.58499e-11 
110 -1.59896e-12 3.59611e-11 -1.90064e-11 
114 -4.53462e-12 9.59496e-12 6.18634e-12 
118 -2.1322e-11 4.61773e-11 7.38442e-12 
122 -2.31411e-11 3.46253e-11 -8.73254e-12 
126 -8.73765e-12 1.2179e-11 -1.55879e-11 
130 4.96033e-11 3.58758e-11 6.6761e-11 
134 1.10399e-10 3.32318e-11 1.54184e-10 
138 1.23814e-10 -4.07863e-11 1.83641e-10 
142 5.84873e-11 -4.25271e-11 9.11013e-11 
146 4.74841e-11 7.27886e-11 1.08316e-10 
150 7.21807e-11 5.38282e-11 2.00927e-10 
154 5.8212e-11 -5.7319e-11 1.95392e-10 
158 2.0107e-11 -7.07327e-11 1.0817e-10 
162 -1.37513e-11 3.85405e-11 5.21654e-11 
166 -1.81529e-11 3.40721e-11 1.25617e-10 
170 -9.53569e-12 -1.56968e-11 9.86836e-11 
174 1.72447e-13 -2.35203e-11 3.55796e-11 
178 -7.55513e-12 1.07098e-11 1.17704e-11 
182 -1.81668e-11 1.01173e-11 3.25001e-11 
186 -1.13951e-11 -1.73444e-12 2.42103e-11 
190 -1.14703e-11 -2.24701e-11 3.16152e-11 
3 -1.14373e-11 9.11813e-12 7.14896e-12 
7 -1.11111e-11 8.37865e-12 -3.582e-12 
11 -1.67887e-11 8.94983e-12 -6.96405e-12 
15 -1.17662e-11 1.26906e-11 -9.36291e-12 
19 -8.72452e-12 -4.19671e-13 6.40156e-12 
23 -8.21457e-12 4.02687e-12 3.38614e-12 
27 -1.48761e-11 5.20711e-12 -3.88322e-12 
31 -2.01017e-11 4.85766e-12 -1.2062e-11 
35 -2.80358e-12 -7.29255e-13 2.21855e-13 
39 -1.11982e-11 -5.31199e-12 -2.81188e-13 
43 -7.37508e-12 -1.987e-12 -2.06209e-12 
47 -3.48687e-12 -3.80622e-13 -1.80163e-12 
51 0 0 0 
55 -4.80188e-12 -3.49058e-12 -6.07909e-13 
59 -8.29964e-12 -4.33526e-12 -1.85812e-12 
63 -2.25002e-11 -2.04174e-11 -1.18933e-11 
67 7.05926e-11 -9.05007e-11 7.47423e-11 
71 1.49883e-10 -2.15376e-10 4.86159e-11 
75 1.65897e-10 -1.95045e-10 -5.77125e-11 
79 9.24512e-11 -9.64624e-11 -8.18068e-11 
83 1.36762e-11 -4.53899e-11 3.11366e-11 
87 5.6072e-11 -2.34046e-10 3.36921e-11 
91 6.42098e-11 -1.88882e-10 -4.97132e-11 
95 3.31025e-11 -9.61574e-11 -7.67172e-11 
99 -3.69334e-12 -3.95296e-11 1.8277e-11 
103 -1.10998e-11 -7.92847e-11 1.66358e-11 
107 -2.0202e-11 -1.01741e-10 -2.53912e-11 
111 -6.09424e-12 -4.47261e-11 -3.058e-11 
115 -1.45458e-11 -1.99551e-11 1.26408e-11 
119 -8.5154e-12 -8.47033e-12 2.74206e-12 
123 -2.21065e-11 -4.11428e-11 -3.88806e-12 
127 -5.45388e-12 -1.16088e-11 -9.31051e-12 
131 5.40314e-11 6.98054e-11 -8.46513e-11 
135 1.50414e-10 5.71914e-11 -1.81367e-10 
139 1.59188e-10 -4.90503e-11 -1.88605e-10 
143 1.3542e-10 -1.2494e-10 -1.45908e-10 
147 2.93754e-11 6.48129e-11 -9.39719e-11 
151 5.24968e-11 5.59747e-11 -2.54385e-10 
155 7.4069e-11 -5.74848e-11 -2.44981e-10 
159 3.87321e-11 -9.04136e-11 -1.37919e-10 
163 -1.74972e-11 5.03785e-11 -7.63103e-11 
167 -9.48121e-12 2.08079e-11 -8.2413e-11 
171 -9.04102e-12 -3.77671e-11 -1.05862e-10 
175 -8.04759e-12 -4.64568e-11 -6.10425e-11 
179 -7.24185e-12 8.24863e-12 -1.40922e-11 
183 -7.01352e-12 3.05288e-12 -1.39559e-11 
187 -1.05696e-11 -3.79761e-12 -1.97957e-11 
191 -4.47543e-12 -7.06476e-12 -1.06106e-11 
4 -3.33523e-12 2.61392e-12 4.48035e-13 
8 -6.60104e-12 1.0595e-11 1.33419e-12 
12 -4.65678e-12 9.51695e-12 -2.02207e-12 
16 0 0 0 
20 -1.35648e-11 1.26565e-12 9.83841e-12 
24 -1.16868e-11 5.55426e-13 1.73638e-12 
28 -3.77882e-12 3.26837e-12 -9.53458e-13 
32 -3.15894e-12 3.6997e-12 -5.23944e-12 
36 -6.42221e-12 4.32513e-13 3.41778e-12 
40 -7.70482e-12 -5.01385e-12 4.57522e-12 
44 -1.97087e-12 -2.16493e-12 -1.92245e-13 
48 -6.26409e-12 -5.81933e-13 -3.01017e-12 
52 -7.07825e-12 -4.22824e-12 6.47572e-12 
56 -1.01856e-11 -1.06582e-11 3.74415e-12 
60 -8.53383e-12 -7.71141e-12 -2.92859e-12 
64 -7.5779e-12 -4.19597e-12 -5.66532e-12 
68 7.3846e-11 -8.77061e-11 5.53103e-11 
72 8.34823e-11 -1.06467e-10 2.47031e-11 
76 1.1662e-10 -1.70187e-10 -2.7585e-11 
80 4.71926e-11 -6.83326e-11 -4.49753e-11 
84 3.67384e-11 -8.56957e-11 5.64743e-11 
88 5.16915e-11 -1.89036e-10 4.43807e-11 
92 5.5639e-11 -1.54919e-10 -4.05742e-11 
96 2.37296e-11 -1.03097e-10 -6.54522e-11 
100 -2.79521e-12 -5.06219e-11 3.4655e-11 
104 -1.49099e-11 -1.07282e-10 1.73256e-11 
108 -1.29411e-11 -9.41965e-11 -1.9675e-11 
112 -4.46664e-12 -2.88007e-11 -1.74356e-11 
116 -1.02042e-11 -9.47531e-12 1.12078e-11 
120 -1.20958e-11 -2.27148e-11 2.4142e-13 
124 -8.54632e-12 -1.93758e-11 -1.68963e-12 
128 -1.01121e-11 -1.65658e-11 -1.07515e-11 
132 6.0654e-11 4.46278e-11 -7.88807e-11 
136 9.20715e-11 2.58206e-11 -1.49596e-10 
140 8.21355e-11 -2.08385e-11 -1.34222e-10 
144 6.42418e-11 -4.94289e-11 -1.05017e-10 
148 3.48249e-11 6.79893e-11 -9.61312e-11 
152 4.69818e-11 3.47946e-11 -1.90465e-10 
156 6.87291e-11 -4.89711e-11 -2.12092e-10 
160 2.66392e-11 -6.52885e-11 -1.19867e-10 
164 -4.07092e-12 4.15402e-11 -6.17089e-11 
168 -1.48747e-11 1.7602e-11 -9.14072e-11 
172 -1.60242e-11 -2.30859e-11 -8.72835e-11 
176 -2.16206e-12 -3.5978e-11 -5.22442e-11 
180 -9.61511e-12 8.42726e-12 -1.01286e-11 
184 -1.92905e-11 9.66644e-12 -2.74046e-11 
188 -1.68954e-11 -9.03851e-12 -2.74413e-11 
192 -7.3067e-12 -1.00306e-11 -1.30189e-11 
ITEM: TIMESTEP
9000
ITEM: NUMBER OF SURFS
192
ITEM: BOX BOUNDS oo rr rr
0 0.0005
0 0.0005
0 0.0005
ITEM: SURFS id f_f_drag_blocks[1] f_f_drag_blocks[2] f_f_drag_blocks[3] 
1 1.0855e-10 6.73262e-11 7.33491e-11 
5 2.85519e-10 1.78519e-10 6.97759e-11 
9 2.44839e-10 1.73639e-10 -5.68945e-11 
13 1.32905e-10 1.00386e-10 -1.09107e-10 
17 1.75755e-10 3.85679e-11 1.25952e-10 
21 5.35301e-10 1.03969e-10 1.12785e-10 
25 5.6593e-10 1.30321e-10 -1.33769e-10 
29 2.51571e-10 6.11174e-11 -1.6946e-10 
33 2.77088e-10 -3.37922e-11 1.71409e-10 
37 5.2822e-10 -1.14841e-10 1.01369e-10 
41 4.57789e-10 -1.00071e-10 -9.2701e-11 
45 2.26011e-10 -5.01406e-11 -1.41404e-10 
49 1.04547e-10 -5.5623e-11 4.68691e-11 
53 2.19872e-10 -1.46368e-10 5.4274e-11 
57 1.51346e-10 -1.07264e-10 -3.80824e-11 
61 1.70148e-10 -1.24472e-10 -9.98067e-11 
65 6.31688e-11 8.65134e-11 6.66447e-11 
69 1.59017e-10 2.0335e-10 5.55619e-11 
73 1.64288e-10 2.10696e-10 -5.03418e-11 
77 1.1144e-10 1.27444e-10 -1.04819e-10 
81 2.63345e-11 9.60129e-11 6.07664e-11 
85 5.20536e-11 2.08357e-10 3.66221e-11 
89 6.09795e-11 2.0511e-10 -6.03603e-11 
93 4.55983e-11 1.21411e-10 -7.11188e-11 
97 -3.58657e-12 5.57821e-11 3.6006e-11 
101 -2.08768e-11 1.31975e-10 3.34343e-11 
105 -1.8414e-11 9.96584e-11 -1.10192e-11 
109 -1.05175e-11 5.91766e-11 -4.33409e-11 
113 -8.49918e-12 1.3349e-11 9.80673e-12 
117 -1.78073e-11 3.2859e-11 1.42587e-11 
121 -1.00258e-11 2.00676e-11 -5.69432e-12 
125 -8.37584e-12 1.80357e-11 -8.86124e-12 
129 5.24676e-11 6.25693e-11 8.35571e-11 
133 1.30757e-10 5.40191e-11 1.66735e-10 
137 1.41716e-10 -5.12928e-11 1.90153e-10 
141 7.40804e-11 -6.87505e-11 7.81463e-11 
145 3.61843e-11 7.15082e-11 1.0987e-10 
149 5.52269e-11 6.66028e-11 2.72157e-10 
153 4.10303e-11 -3.82739e-11 1.52155e-10 
157 3.02664e-11 -5.11931e-11 7.51451e-11 
161 1.04391e-12 3.39707e-11 5.28442e-11 
165 -1.01079e-11 1.06231e-11 6.56891e-11 
169 -2.01142e-11 -3.09985e-11 1.18068e-10 
173 -1.97272e-11 -4.31677e-11 6.57407e-11 
177 -3.64308e-12 5.21643e-12 9.35065e-12 
181 -1.61808e-11 9.44783e-13 2.45273e-11 
185 -5.42087e-12 -3.63682e-12 1.0124e-11 
189 -1.03683e-11 -8.71612e-12 1.53561e-11 
2 7.90366e-11 5.7258e-11 4.63377e-11 
6 1.82382e-10 1.37504e-10 4.10169e-11 
10 1.93094e-10 1.24154e-10 -5.01823e-11 
14 1.03885e-10 5.54717e-11 -4.80884e-11 
18 2.31955e-10 5.56795e-11 1.40446e-10 
22 6.00166e-10 1.31448e-10 1.19896e-10 
26 5.4697e-10 1.05711e-10 -1.04102e-10 
30 1.53257e-10 3.36886e-11 -1.0277e-10 
34 2.52977e-10 -6.57797e-11 1.71321e-10 
38 5.45423e-10 -1.185e-10 1.13034e-10 
42 5.38043e-10 -1.08167e-10 -1.34743e-10 
46 2.48223e-10 -4.09969e-11 -1.61144e-10 
50 1.71703e-10 -1.31646e-10 1.17546e-10 
54 2.55688e-10 -1.75447e-10 6.92591e-11 
58 2.81896e-10 -1.62309e-10 -5.28605e-11 
62 1.68205e-10 -1.10614e-10 -1.19043e-10 
66 8.09323e-11 9.94724e-11 7.25729e-11 
70 1.31643e-10 1.58263e-10 5.35257e-11 
74 8.60956e-11 1.35504e-10 -2.73868e-11 
78 4.22897e-11 6.40901e-11 -4.34548e-11 
82 2.9368e-11 6.6517e-11 4.6614e-11 
86 7.92071e-11 2.51135e-10 4.21135e-11 
90 6.06782e-11 1.82589e-10 -4.78363e-11 
94 3.40995e-11 1.22889e-10 -8.27991e-11 
98 -1.07076e-11 4.79395e-11 3.43901e-11 
102 -1.23771e-11 8.64295e-11 1.92211e-11 
106 -9.4467e-12 1.03721e-10 -2.30493e-11 
110 -5.37765e-12 3.33795e-11 -2.66852e-11 
114 -1.47139e-11 1.88382e-11 1.94133e-11 
118 -2.0831e-11 4.00381e-11 9.91565e-12 