ITEM: TIMESTEP
1302
ITEM: NUMBER OF SURFS
192
ITEM: BOX BOUNDS oo rr rr
0 0.0005
0 0.0005
0 0.0005
ITEM: SURFS id f_ID_drag_fix[1] f_ID_drag_fix[2] f_ID_drag_fix[3] 
1 0 0 0 
5 0 0 0 
9 0 0 0 
13 0 0 0 
17 0 0 0 
21 0 0 0 
25 0 0 0 
29 0 0 0 
33 0 0 0 
37 0 0 0 
41 0 0 0 
45 0 0 0 
49 0 0 0 
53 0 0 0 
57 0 0 0 
61 0 0 0 
65 0 0 0 
69 0 0 0 
73 0 0 0 
77 0 0 0 
81 0 0 0 
85 0 0 0 
89 0 0 0 
93 0 0 0 
97 0 0 0 
101 0 0 0 
105 0 0 0 
109 0 0 0 
113 0 0 0 
117 0 0 0 
121 0 0 0 
125 0 0 0 
129 0 0 0 
133 0 0 0 
137 0 0 0 
141 0 0 0 
145 0 0 0 
149 0 0 0 
153 0 0 0 
157 0 0 0 
161 0 0 0 
165 0 0 0 
169 0 0 0 
173 0 0 0 
177 0 0 0 
181 0 0 0 
185 0 0 0 
189 0 0 0 
2 0 0 0 
6 0 0 0 
10 0 0 0 
14 0 0 0 
18 0 0 0 
22 0 0 0 
26 0 0 0 
30 0 0 0 
34 0 0 0 
38 0 0 0 
42 0 0 0 
46 0 0 0 
50 0 0 0 
54 0 0 0 
58 0 0 0 
62 0 0 0 
66 0 0 0 
70 0 0 0 
74 0 0 0 
78 0 0 0 
82 0 0 0 
86 0 0 0 
90 0 0 0 
94 0 0 0 
98 0 0 0 
102 0 0 0 
106 0 0 0 
110 0 0 0 
114 0 0 0 
118 0 0 0 
122 0 0 0 
126 0 0 0 
130 0 0 0 
134 0 0 0 
138 0 0 0 
142 0 0 0 
146 0 0 0 
150 0 0 0 
154 0 0 0 
158 0 0 0 
162 0 0 0 
166 0 0 0 
170 0 0 0 
174 0 0 0 
178 0 0 0 
182 0 0 0 
186 0 0 0 
190 0 0 0 
3 0 0 0 
7 0 0 0 
11 0 0 0 
15 0 0 0 
19 0 0 0 
23 0 0 0 
27 0 0 0 
31 0 0 0 
35 0 0 0 
39 0 0 0 
43 0 0 0 
47 0 0 0 
51 0 0 0 
55 0 0 0 
59 0 0 0 
63 0 0 0 
67 0 0 0 
71 0 0 0 
75 0 0 0 
79 0 0 0 
83 0 0 0 
87 0 0 0 
91 0 0 0 
95 0 0 0 
99 0 0 0 
103 0 0 0 
107 0 0 0 
111 0 0 0 
115 0 0 0 
119 0 0 0 
123 0 0 0 
127 0 0 0 
131 0 0 0 
135 0 0 0 
139 0 0 0 
143 0 0 0 
147 0 0 0 
151 0 0 0 
155 0 0 0 
159 0 0 0 
163 0 0 0 
167 0 0 0 
171 0 0 0 
175 0 0 0 
179 0 0 0 
183 0 0 0 
187 0 0 0 
191 0 0 0 
4 0 0 0 
8 0 0 0 
12 0 0 0 
16 0 0 0 
20 0 0 0 
24 0 0 0 
28 0 0 0 
32 0 0 0 
36 0 0 0 
40 0 0 0 
44 0 0 0 
48 0 0 0 
52 0 0 0 
56 0 0 0 
60 0 0 0 
64 0 0 0 
68 0 0 0 
72 0 0 0 
76 0 0 0 
80 0 0 0 
84 0 0 0 
88 0 0 0 
92 0 0 0 
96 0 0 0 
100 0 0 0 
104 0 0 0 
108 0 0 0 
112 0 0 0 
116 0 0 0 
120 0 0 0 
124 0 0 0 
128 0 0 0 
132 0 0 0 
136 0 0 0 
140 0 0 0 
144 0 0 0 
148 0 0 0 
152 0 0 0 
156 0 0 0 
160 0 0 0 
164 0 0 0 
168 0 0 0 
172 0 0 0 
176 0 0 0 
180 0 0 0 
184 0 0 0 
188 0 0 0 
192 0 0 0 
ITEM: TIMESTEP
2604
ITEM: NUMBER OF SURFS
192
ITEM: BOX BOUNDS oo rr rr
0 0.0005
0 0.0005
0 0.0005
ITEM: SURFS id f_ID_drag_fix[1] f_ID_drag_fix[2] f_ID_drag_fix[3] 
1 1.09216e-10 5.8677e-11 8.1262e-11 
5 2.60399e-10 1.58788e-10 4.60038e-11 
9 2.36252e-10 1.66277e-10 -6.94151e-11 
13 1.36375e-10 1.03586e-10 -1.17718e-10 
17 2.18317e-10 5.84633e-11 1.46267e-10 
21 6.99129e-10 1.30242e-10 1.43353e-10 
25 5.85472e-10 1.45345e-10 -1.14093e-10 
29 2.52019e-10 5.56251e-11 -1.79847e-10 
33 1.27206e-10 -2.30807e-11 7.12017e-11 
37 6.61406e-10 -1.32936e-10 1.19898e-10 
41 6.22344e-10 -1.53618e-10 -1.45705e-10 
45 3.39424e-10 -6.75757e-11 -1.9524e-10 
49 1.09074e-10 -5.59408e-11 6.26254e-11 
53 2.67672e-10 -1.57498e-10 4.14705e-11 
57 1.9906e-10 -1.53057e-10 -4.66899e-11 
61 6.8777e-11 -5.64908e-11 -4.60002e-11 
65 5.37051e-11 8.30786e-11 6.13686e-11 
69 1.19917e-10 1.67981e-10 3.21293e-11 
73 1.11271e-10 1.2438e-10 -2.61554e-11 
77 8.26417e-11 8.0089e-11 -6.91909e-11 
81 3.88618e-11 9.27324e-11 5.77654e-11 
85 4.75311e-11 1.58776e-10 4.66629e-11 
89 6.61132e-11 2.28783e-10 -5.98278e-11 
93 4.61458e-11 1.20455e-10 -9.99415e-11 
97 -3.86075e-12 6.75878e-11 4.73548e-11 
101 -5.96323e-12 1.29892e-10 2.94557e-11 
105 -2.39909e-11 8.7343e-11 -3.07006e-11 
109 -4.82453e-12 6.71712e-11 -4.1371e-11 
113 -9.66341e-12 1.9899e-11 1.57551e-11 
117 -2.23517e-11 3.16432e-11 1.14584e-11 
121 -1.29568e-11 1.81405e-11 -3.5265e-12 
125 -4.97264e-12 1.03914e-11 -7.85873e-12 
129 1.0403e-10 1.09624e-10 1.45529e-10 
133 1.36522e-10 6.38799e-11 1.88277e-10 
137 1.03931e-10 -3.74965e-11 1.31647e-10 
141 4.74374e-11 -4.10503e-11 6.00051e-11 
145 2.2982e-11 5.43862e-11 7.7957e-11 
149 6.48865e-11 4.10543e-11 2.09574e-10 
153 5.47074e-11 -4.28205e-11 2.02332e-10 
157 3.83736e-11 -9.67227e-11 1.21799e-10 
161 -1.64941e-11 5.61658e-11 9.78966e-11 
165 -8.1933e-12 2.53605e-11 9.16796e-11 
169 -1.66874e-11 -1.12134e-11 6.35524e-11 
173 -7.94052e-12 -3.22404e-11 4.61917e-11 
177 -1.56437e-11 2.50889e-11 2.48486e-11 
181 -8.80311e-12 -5.56831e-12 1.04113e-11 
185 -1.28317e-11 -4.42857e-12 3.32262e-11 
189 0 0 0 
2 1.17618e-10 7.37636e-11 8.16237e-11 
6 1.83287e-10 1.28156e-10 3.40409e-11 
10 1.69986e-10 7.80383e-11 -2.38171e-11 
14 1.27878e-10 6.09905e-11 -6.97461e-11 
18 2.26231e-10 5.23072e-11 1.48814e-10 
22 5.05871e-10 1.15185e-10 1.08916e-10 
26 4.10863e-10 8.28219e-11 -7.88173e-11 
30 2.53899e-10 5.41597e-11 -1.70757e-10 
34 2.11805e-10 -6.21506e-11 1.49443e-10 
38 5.62921e-10 -1.46512e-10 1.35322e-10 
42 5.62311e-10 -1.09862e-10 -1.39344e-10 
46 2.22409e-10 -3.74813e-11 -1.54921e-10 
50 1.36242e-10 -1.10146e-10 9.98194e-11 
54 2.70804e-10 -1.76674e-10 5.59249e-11 
58 2.49126e-10 -1.5597e-10 -6.3895e-11 
62 1.30703e-10 -7.5341e-11 -7.91592e-11 
66 5.61171e-11 6.96094e-11 4.27908e-11 
70 1.12595e-10 1.30549e-10 2.01067e-11 
74 6.73684e-11 1.14094e-10 -2.39033e-11 
78 6.55729e-11 1.02838e-10 -5.67725e-11 
82 2.8717e-11 8.22098e-11 5.56963e-11 
86 8.26808e-11 2.33286e-10 3.09183e-11 
90 5.65877e-11 1.87315e-10 -2.49052e-11 
94 2.35177e-11 9.34478e-11 -6.87419e-11 
98 -4.14554e-12 4.93188e-11 3.23903e-11 
102 -5.78784e-12 6.25055e-11 9.96517e-12 
106 -1.19989e-11 8.42438e-11 -2.53863e-11 
110 -4.61885e-12 5.10037e-11 -3.97914e-11 
114 -9.45478e-12 1.70387e-11 1.13281e-11 
118 -2.06991e-11 2.59069e-11 2.92061e-12 
122 -1.43304e-12 2.46301e-11 -1.466e-12 
126 -3.42005e-12 4.86916e-12 -3.87019e-12 
130 6.60607e-11 4.86288e-11 6.71173e-11 
134 1.28333e-10 2.74885e-11 1.60911e-10 
138 9.26205e-11 -1.73733e-11 1.23925e-10 
142 8.63028e-11 -7.323e-11 1.14429e-10 
146 2.31097e-11 4.7718e-11 7.06519e-11 
150 5.68972e-11 4.36915e-11 1.67723e-10 
154 3.493e-11 -3.6546e-11 1.36667e-10 
158 2.44112e-11 -5.85594e-11 8.48174e-11 
162 -7.65676e-12 5.58779e-11 7.23687e-11 
166 -1.77039e-11 9.33555e-12 8.37765e-11 
170 -1.23079e-11 -3.77675e-11 1.00335e-10 
174 -2.07651e-13 -1.71921e-11 2.38796e-11 
178 -1.76404e-11 1.20453e-11 2.26489e-11 
182 -2.51586e-11 1.8695e-11 4.35505e-11 
186 -1.29875e-11 -7.78957e-12 1.62885e-11 
190 -5.67184e-12 -1.12192e-11 1.35119e-11 
3 -1.16622e-11 4.41112e-12 1.43007e-11 
7 -1.46461e-11 1.44093e-11 3.44941e-12 
11 -5.31759e-12 3.83515e-12 -4.17024e-12 
15 -4.10572e-12 7.13094e-12 -6.55237e-12 
19 -5.73402e-12 4.15744e-12 5.44889e-12 
23 -3.29318e-12 1.98557e-13 1.12336e-13 
27 -1.98166e-11 7.18444e-12 -7.09853e-12 
31 -1.17058e-11 5.98274e-13 -1.0848e-11 
35 -1.60395e-11 -4.98984e-12 1.32894e-11 
39 -6.56615e-12 -4.37763e-12 -1.66989e-12 
43 -1.27282e-11 -1.70514e-12 -3.38846e-12 
47 -1.5403e-11 -6.90511e-12 -1.35153e-11 
51 -8.33934e-12 -8.77248e-12 8.14784e-12 
55 -2.93446e-12 -5.01198e-13 3.16233e-12 
59 -2.1859e-11 -1.65692e-11 -3.69056e-12 
63 -1.72442e-11 -9.95602e-12 -8.18025e-12 
67 7.72204e-11 -1.22796e-10 9.03998e-11 
71 1.45161e-10 -1.58998e-10 5.01487e-11 
75 1.17979e-10 -1.47844e-10 -4.57948e-11 
79 1.10221e-10 -1.2545e-10 -1.05181e-10 
83 1.80292e-11 -5.28092e-11 3.32346e-11 
87 6.15933e-11 -1.91015e-10 4.69468e-11 
91 7.82791e-11 -2.471e-10 -7.30025e-11 
95 2.66805e-11 -7.55364e-11 -5.73679e-11 
99 -5.56437e-12 -5.99871e-11 4.30199e-11 
103 -1.74833e-11 -1.40517e-10 3.31363e-11 
107 -3.08282e-12 -6.03509e-11 -2.03101e-11 
111 -1.30129e-11 -6.90613e-11 -3.58475e-11 
115 -1.298e-11 -2.94484e-11 1.79787e-11 
119 -7.29805e-12 -1.53603e-11 4.26288e-12 
123 -1.61918e-11 -2.63462e-11 -6.59412e-12 
127 -1.90161e-13 -2.32847e-12 -2.26994e-12 
131 5.78914e-11 6.12565e-11 -8.31592e-11 
135 1.53312e-10 5.03621e-11 -1.97338e-10 
139 1.91366e-10 -4.08147e-11 -2.2607e-10 
143 1.07065e-10 -9.7236e-11 -1.30131e-10 
147 3.0384e-11 8.20848e-11 -1.08695e-10 
151 6.82723e-11 4.47062e-11 -2.1819e-10 
155 5.14253e-11 -5.06662e-11 -1.8746e-10 
159 3.12609e-11 -1.07352e-10 -1.3997e-10 
163 -5.35294e-12 3.52682e-11 -5.18685e-11 
167 -2.24405e-11 2.08996e-11 -1.29141e-10 
171 -2.94339e-11 -1.60512e-11 -1.21489e-10 
175 -1.44878e-11 -3.17128e-11 -3.48711e-11 
179 -6.26199e-12 5.97675e-12 -1.5324e-11 
183 -5.69005e-12 -7.17094e-13 -1.21008e-11 
187 -6.70911e-12 -1.76473e-12 -2.14535e-11 
191 -3.5579e-12 -2.64825e-12 -4.71247e-12 
4 -9.84995e-12 9.40093e-12 9.91864e-12 
8 -1.27016e-11 1.07453e-11 1.94337e-12 
12 -1.35819e-11 4.17829e-12 -4.97317e-12 
16 -5.26966e-12 1.05727e-11 -1.95079e-12 
20 -4.97711e-12 2.86542e-12 -4.0942e-13 
24 -4.92312e-12 -4.6348e-13 3.15244e-13 
28 -8.25814e-12 1.01349e-12 -1.44763e-12 
32 -1.10987e-11 7.8082e-13 -1.0046e-11 
36 -1.19555e-11 -8.81591e-12 1.28822e-11 
40 -2.10223e-11 -5.87573e-12 6.50727e-12 
44 -1.99008e-11 1.88398e-12 -4.48868e-12 
48 -1.75048e-11 -4.2664e-12 -1.0203e-11 
52 -4.9031e-12 -1.4153e-11 7.94399e-12 
56 -7.43296e-12 -6.53369e-12 -3.55911e-13 
60 -1.64833e-11 -1.29272e-11 -3.53734e-13 
64 -1.22977e-11 -7.81723e-12 -6.31316e-12 
68 8.55959e-11 -1.07177e-10 5.43355e-11 
72 1.29322e-10 -1.66713e-10 4.54566e-11 
76 8.51968e-11 -1.34728e-10 -2.86096e-11 
80 4.1293e-11 -6.09972e-11 -4.30585e-11 
84 3.48042e-11 -1.23581e-10 9.10022e-11 
88 6.56052e-11 -2.16633e-10 5.71786e-11 
92 5.17176e-11 -1.80934e-10 -3.50703e-11 
96 1.95588e-11 -8.33927e-11 -4.01516e-11 
100 -6.64542e-12 -5.74702e-11 3.87405e-11 
104 -2.38905e-11 -7.07699e-11 9.71514e-12 
108 -1.58257e-11 -1.15276e-10 -3.34514e-11 
112 -1.18248e-11 -6.25285e-11 -5.26442e-11 
116 -2.09603e-11 -2.83724e-11 2.46074e-11 
120 -2.91004e-11 -4.69665e-11 1.82339e-11 
124 -7.66272e-12 -1.80204e-11 -4.80738e-12 
128 -1.66354e-11 -3.35793e-11 -3.42778e-11 
132 1.06069e-10 7.73836e-11 -1.27368e-10 
136 1.09738e-10 2.68315e-11 -1.47357e-10 
140 7.99157e-11 -2.42844e-11 -1.11843e-10 
144 4.5519e-11 -3.53398e-11 -6.60482e-11 
148 2.22222e-11 3.60772e-11 -6.977e-11 
152 5.08328e-11 2.74199e-11 -1.75852e-10 
156 3.58113e-11 -2.24817e-11 -1.3762e-10 
160 4.12788e-11 -8.38407e-11 -1.23206e-10 
164 -2.09856e-11 5.53674e-11 -6.93274e-11 
168 -2.48772e-11 2.5098e-11 -1.29068e-10 
172 -9.54525e-12 -1.70146e-11 -8.98333e-11 
176 -3.65534e-13 -2.39167e-11 -3.68284e-11 
180 -8.62016e-12 1.1337e-11 -1.68065e-11 
184 -7.08085e-12 3.35749e-12 -2.1848e-11 
188 -1.5291e-11 -9.16059e-12 -3.40648e-11 
192 -5.82332e-12 -7.01242e-12 -8.78411e-12 
