ITEM: TIMESTEP
1250
ITEM: NUMBER OF SURFS
192
ITEM: BOX BOUNDS oo rr rr
0 0.0005
0 0.0005
0 0.0005
ITEM: SURFS id f_f_drag_cumul[1] f_f_drag_cumul[2] f_f_drag_cumul[3] 
1 0 0 0 
5 0 0 0 
9 0 0 0 
13 0 0 0 
17 0 0 0 
21 0 0 0 
25 0 0 0 
29 0 0 0 
33 0 0 0 
37 0 0 0 
41 0 0 0 
45 0 0 0 
49 0 0 0 
53 0 0 0 
57 0 0 0 
61 0 0 0 
65 0 0 0 
69 0 0 0 
73 0 0 0 
77 0 0 0 
81 0 0 0 
85 0 0 0 
89 0 0 0 
93 0 0 0 
97 0 0 0 
101 0 0 0 
105 0 0 0 
109 0 0 0 
113 0 0 0 
117 0 0 0 
121 0 0 0 
125 0 0 0 
129 0 0 0 
133 0 0 0 
137 0 0 0 
141 0 0 0 
145 0 0 0 
149 0 0 0 
153 0 0 0 
157 0 0 0 
161 0 0 0 
165 0 0 0 
169 0 0 0 
173 0 0 0 
177 0 0 0 
181 0 0 0 
185 0 0 0 
189 0 0 0 
2 0 0 0 
6 0 0 0 
10 0 0 0 
14 0 0 0 
18 0 0 0 
22 0 0 0 
26 0 0 0 
30 0 0 0 
34 0 0 0 
38 0 0 0 
42 0 0 0 
46 0 0 0 
50 0 0 0 
54 0 0 0 
58 0 0 0 
62 0 0 0 
66 0 0 0 
70 0 0 0 
74 0 0 0 
78 0 0 0 
82 0 0 0 
86 0 0 0 
90 0 0 0 
94 0 0 0 
98 0 0 0 
102 0 0 0 
106 0 0 0 
110 0 0 0 
114 0 0 0 
118 0 0 0 
122 0 0 0 
126 0 0 0 
130 0 0 0 
134 0 0 0 
138 0 0 0 
142 0 0 0 
146 0 0 0 
150 0 0 0 
154 0 0 0 
158 0 0 0 
162 0 0 0 
166 0 0 0 
170 0 0 0 
174 0 0 0 
178 0 0 0 
182 0 0 0 
186 0 0 0 
190 0 0 0 
3 0 0 0 
7 0 0 0 
11 0 0 0 
15 0 0 0 
19 0 0 0 
23 0 0 0 
27 0 0 0 
31 0 0 0 
35 0 0 0 
39 0 0 0 
43 0 0 0 
47 0 0 0 
51 0 0 0 
55 0 0 0 
59 0 0 0 
63 0 0 0 
67 0 0 0 
71 0 0 0 
75 0 0 0 
79 0 0 0 
83 0 0 0 
87 0 0 0 
91 0 0 0 
95 0 0 0 
99 0 0 0 
103 0 0 0 
107 0 0 0 
111 0 0 0 
115 0 0 0 
119 0 0 0 
123 0 0 0 
127 0 0 0 
131 0 0 0 
135 0 0 0 
139 0 0 0 
143 0 0 0 
147 0 0 0 
151 0 0 0 
155 0 0 0 
159 0 0 0 
163 0 0 0 
167 0 0 0 
171 0 0 0 
175 0 0 0 
179 0 0 0 
183 0 0 0 
187 0 0 0 
191 0 0 0 
4 0 0 0 
8 0 0 0 
12 0 0 0 
16 0 0 0 
20 0 0 0 
24 0 0 0 
28 0 0 0 
32 0 0 0 
36 0 0 0 
40 0 0 0 
44 0 0 0 
48 0 0 0 
52 0 0 0 
56 0 0 0 
60 0 0 0 
64 0 0 0 
68 0 0 0 
72 0 0 0 
76 0 0 0 
80 0 0 0 
84 0 0 0 
88 0 0 0 
92 0 0 0 
96 0 0 0 
100 0 0 0 
104 0 0 0 
108 0 0 0 
112 0 0 0 
116 0 0 0 
120 0 0 0 
124 0 0 0 
128 0 0 0 
132 0 0 0 
136 0 0 0 
140 0 0 0 
144 0 0 0 
148 0 0 0 
152 0 0 0 
156 0 0 0 
160 0 0 0 
164 0 0 0 
168 0 0 0 
172 0 0 0 
176 0 0 0 
180 0 0 0 
184 0 0 0 
188 0 0 0 
192 0 0 0 
ITEM: TIMESTEP
2500
ITEM: NUMBER OF SURFS
192
ITEM: BOX BOUNDS oo rr rr
0 0.0005
0 0.0005
0 0.0005
ITEM: SURFS id f_f_drag_cumul[1] f_f_drag_cumul[2] f_f_drag_cumul[3] 
1 1.5153e-10 9.23209e-11 1.07468e-10 
5 2.42586e-10 1.55105e-10 5.76425e-11 
9 2.72306e-10 1.80282e-10 -6.61154e-11 
13 1.22696e-10 8.88479e-11 -9.02795e-11 
17 2.23884e-10 4.24136e-11 1.4186e-10 
21 5.44567e-10 1.11257e-10 1.17096e-10 
25 5.84157e-10 1.2267e-10 -1.2931e-10 
29 2.78827e-10 7.04755e-11 -1.91011e-10 
33 2.15996e-10 -4.23412e-11 1.27989e-10 
37 4.88661e-10 -9.98437e-11 9.85723e-11 
41 5.39387e-10 -1.27895e-10 -1.16074e-10 
45 2.63851e-10 -6.72217e-11 -1.61395e-10 
49 1.28859e-10 -6.66964e-11 6.85807e-11 
53 2.21904e-10 -1.34647e-10 4.18982e-11 
57 1.92865e-10 -1.29378e-10 -4.17168e-11 
61 1.20997e-10 -8.3311e-11 -7.09336e-11 
65 7.59654e-11 1.02275e-10 8.15019e-11 
69 1.13939e-10 1.62085e-10 4.14063e-11 
73 1.49487e-10 1.87674e-10 -4.43201e-11 
77 8.67997e-11 9.64812e-11 -7.4727e-11 
81 2.99819e-11 8.79695e-11 6.73585e-11 
85 5.84536e-11 2.15964e-10 5.09752e-11 
89 6.76227e-11 2.30018e-10 -5.46519e-11 
93 4.13672e-11 1.21127e-10 -8.43034e-11 
97 -2.82195e-12 4.28956e-11 2.61923e-11 
101 -1.20355e-11 8.11002e-11 1.78946e-11 
105 -1.26416e-11 8.26063e-11 -1.56964e-11 
109 -5.5588e-12 4.7987e-11 -3.00207e-11 
113 -4.35315e-12 1.54861e-11 9.97296e-12 
117 -1.23283e-11 2.71053e-11 2.16547e-12 
121 -1.1155e-11 2.04258e-11 -2.96989e-12 
125 -6.82117e-12 9.81344e-12 -5.8638e-12 
129 6.26344e-11 6.4787e-11 8.14466e-11 
133 1.1595e-10 3.8662e-11 1.61992e-10 
137 1.57762e-10 -5.36478e-11 1.97341e-10 
141 1.06381e-10 -9.00815e-11 1.08381e-10 
145 2.4832e-11 6.82489e-11 9.42246e-11 
149 5.13004e-11 4.04008e-11 1.82994e-10 
153 6.51411e-11 -5.28865e-11 2.1091e-10 
157 4.12006e-11 -8.84037e-11 1.21082e-10 
161 -5.3273e-12 3.57432e-11 5.49922e-11 
165 -8.35044e-12 2.05482e-11 9.24824e-11 
169 -1.05779e-11 -2.10197e-11 9.23329e-11 
173 -8.65756e-12 -3.66063e-11 6.11223e-11 
177 -5.74896e-12 8.6836e-12 1.32368e-11 
181 -9.97384e-12 7.51235e-12 2.22966e-11 
185 -1.01966e-11 -2.7744e-12 1.99409e-11 
189 -8.29409e-12 -7.98323e-12 1.12845e-11 
2 1.27486e-10 9.0665e-11 7.18552e-11 
6 2.12874e-10 1.42187e-10 4.17878e-11 
10 2.5143e-10 1.52661e-10 -4.94118e-11 
14 1.30138e-10 6.92085e-11 -7.10653e-11 
18 2.78176e-10 7.11346e-11 1.71564e-10 
22 4.97709e-10 1.15235e-10 1.05632e-10 
26 5.03635e-10 1.0016e-10 -1.00641e-10 
30 2.01782e-10 3.65254e-11 -1.20568e-10 
34 2.86169e-10 -6.78681e-11 1.94312e-10 
38 6.17861e-10 -1.40393e-10 1.41477e-10 
42 5.11769e-10 -9.87632e-11 -1.17845e-10 
46 1.93283e-10 -3.69965e-11 -1.36755e-10 
50 1.17873e-10 -9.22743e-11 8.91156e-11 
54 2.63617e-10 -1.70735e-10 5.80532e-11 
58 2.44601e-10 -1.55036e-10 -6.22007e-11 
62 1.16753e-10 -7.63565e-11 -8.53585e-11 
66 8.01529e-11 9.22405e-11 5.81965e-11 
70 1.2566e-10 1.58623e-10 3.49756e-11 
74 1.04024e-10 1.39699e-10 -2.69847e-11 
78 6.03884e-11 8.17679e-11 -5.04161e-11 
82 3.46338e-11 1.19008e-10 8.10762e-11 
86 6.6528e-11 2.1113e-10 4.44439e-11 
90 3.85471e-11 1.38665e-10 -2.48336e-11 
94 2.43893e-11 7.66338e-11 -4.81018e-11 
98 -8.75831e-12 5.4505e-11 3.74496e-11 
102 -1.23492e-11 8.68495e-11 2.0586e-11 
106 -1.93634e-11 1.05434e-10 -2.45716e-11 
110 -6.26e-12 5.72227e-11 -3.51577e-11 
114 -8.75202e-12 1.82114e-11 1.38017e-11 
118 -1.74994e-11 2.6424e-11 5.02686e-12 
122 -1.41294e-11 2.63664e-11 -8.97954e-12 
126 -6.49006e-12 1.16295e-11 -9.6867e-12 
130 7.89032e-11 6.1077e-11 9.24043e-11 
134 1.20347e-10 3.32346e-11 1.48332e-10 
138 1.01643e-10 -2.94024e-11 1.42098e-10 
142 5.59683e-11 -4.91764e-11 8.8012e-11 
146 4.16651e-11 7.97423e-11 1.20345e-10 
150 6.30682e-11 3.87147e-11 1.95187e-10 
154 4.46819e-11 -3.61531e-11 1.76687e-10 
158 2.23941e-11 -5.8563e-11 8.68737e-11 
162 -1.07943e-11 3.78365e-11 5.33325e-11 
166 -1.83205e-11 2.70633e-11 1.0667e-10 
170 -1.38485e-11 -2.54769e-11 9.85836e-11 
174 -7.23597e-12 -4.29869e-11 6.2109e-11 
178 -9.96408e-12 1.37776e-11 1.60516e-11 
182 -1.24811e-11 6.43685e-12 2.1593e-11 
186 -1.60335e-11 -7.1106e-12 2.91745e-11 
190 -8.82171e-12 -1.28218e-11 1.74828e-11 
3 -6.80712e-12 4.65882e-12 5.26897e-12 
7 -1.01324e-11 7.63366e-12 1.75535e-12 
11 -1.3272e-11 9.26615e-12 -2.50296e-12 
15 -8.93376e-12 7.85492e-12 -8.79795e-12 
19 -8.14571e-12 1.58658e-12 6.85101e-12 
23 -1.01135e-11 3.73165e-12 2.84577e-12 
27 -7.72852e-12 1.78343e-12 -2.12548e-12 
31 -8.84025e-12 3.34468e-12 -8.79784e-12 
35 -9.55143e-12 -2.30576e-12 8.75736e-12 
39 -4.81041e-12 -1.45222e-12 2.2985e-12 
43 -1.45461e-11 -4.36307e-12 -3.18197e-12 
47 -9.32486e-12 -2.86824e-12 -6.97119e-12 
51 -3.5446e-12 -2.79916e-12 3.01501e-12 
55 -8.54963e-12 -6.44593e-12 2.84163e-12 
59 -6.13136e-12 -6.77576e-12 -2.55718e-13 
63 -1.02529e-11 -8.1425e-12 -7.97775e-12 
67 6.15962e-11 -8.3389e-11 6.05605e-11 
71 1.11328e-10 -1.60524e-10 3.81203e-11 
75 1.45029e-10 -1.87942e-10 -4.74099e-11 
79 1.08505e-10 -1.17958e-10 -9.70239e-11 
83 2.66579e-11 -8.55791e-11 6.53265e-11 
87 5.2909e-11 -1.8035e-10 4.39306e-11 
91 6.39132e-11 -2.26631e-10 -4.53409e-11 
95 3.9129e-11 -1.05213e-10 -7.10188e-11 
99 -5.51601e-12 -5.63206e-11 3.70562e-11 
103 -1.25704e-11 -9.32775e-11 2.06872e-11 
107 -1.48623e-11 -9.84986e-11 -1.74545e-11 
111 -8.99971e-12 -5.56215e-11 -4.16624e-11 
115 -6.2185e-12 -1.51723e-11 7.95867e-12 
119 -1.195e-11 -2.31075e-11 5.53773e-12 
123 -1.24961e-11 -1.92229e-11 -3.73652e-12 
127 -6.55256e-12 -1.06866e-11 -6.3185e-12 
131 5.8485e-11 6.43279e-11 -8.26018e-11 
135 1.38467e-10 4.88429e-11 -1.84488e-10 
139 1.413e-10 -4.73032e-11 -1.82071e-10 
143 9.59973e-11 -8.0292e-11 -1.01762e-10 
147 2.6672e-11 6.37666e-11 -9.16695e-11 
151 5.44792e-11 4.37233e-11 -1.95852e-10 
155 7.31694e-11 -4.73294e-11 -2.23523e-10 
159 3.67039e-11 -7.3278e-11 -1.01058e-10 
163 -3.47888e-12 4.06381e-11 -6.69534e-11 
167 -1.37531e-11 2.12219e-11 -8.78077e-11 
171 -1.30028e-11 -1.65584e-11 -7.48265e-11 
175 -1.04344e-11 -3.97808e-11 -5.68753e-11 
179 -5.21251e-12 9.05705e-12 -1.43682e-11 
183 -1.08509e-11 5.31321e-12 -1.99274e-11 
187 -1.3755e-11 -3.50724e-12 -2.13373e-11 
191 -7.90319e-12 -7.4441e-12 -9.23103e-12 
4 -5.30984e-12 4.232e-12 3.65525e-12 
8 -1.21856e-11 9.97003e-12 3.61555e-12 
12 -7.0571e-12 5.41952e-12 -1.78747e-13 
16 -7.15626e-12 5.37965e-12 -6.40131e-12 
20 -8.45358e-12 1.61453e-12 8.03553e-12 
24 -6.48847e-12 1.7408e-12 9.64694e-13 
28 -9.90824e-12 2.04528e-12 -2.84555e-12 
32 -1.26871e-11 1.57119e-12 -6.10977e-12 
36 -9.22962e-12 -3.24357e-12 1.04103e-11 
40 -1.21669e-11 -2.32112e-12 4.08108e-12 
44 -7.83803e-12 -8.1968e-13 -1.67924e-12 
48 -5.09693e-12 -7.34584e-13 -5.22795e-12 
52 -1.06099e-11 -1.09222e-11 1.0904e-11 
56 -1.10585e-11 -8.82169e-12 4.78616e-12 
60 -8.57027e-12 -7.22189e-12 -1.79539e-12 
64 -8.04547e-12 -5.05067e-12 -6.75149e-12 
68 8.89414e-11 -1.08679e-10 6.64881e-11 
72 1.32367e-10 -1.7074e-10 3.3064e-11 
76 9.61921e-11 -1.35773e-10 -2.4714e-11 
80 5.15691e-11 -7.88656e-11 -4.23921e-11 
84 4.43535e-11 -1.36209e-10 9.01062e-11 
88 6.05909e-11 -1.93801e-10 4.21511e-11 
92 4.78088e-11 -1.85311e-10 -3.31933e-11 
96 2.12057e-11 -7.71157e-11 -4.61331e-11 
100 -6.83706e-12 -5.40065e-11 3.84709e-11 
104 -1.44164e-11 -1.08044e-10 2.68188e-11 
108 -1.1054e-11 -8.19583e-11 -1.76778e-11 
112 -5.68005e-12 -5.363e-11 -3.7488e-11 
116 -1.44624e-11 -2.06283e-11 1.55681e-11 
120 -1.2769e-11 -2.23429e-11 5.58156e-12 
124 -1.5589e-11 -3.17609e-11 -6.76592e-12 
128 -8.50282e-12 -1.85905e-11 -1.36952e-11 
132 8.24306e-11 6.35602e-11 -9.84203e-11 
136 1.30894e-10 3.4019e-11 -1.62127e-10 
140 1.12647e-10 -3.03339e-11 -1.54225e-10 
144 4.11272e-11 -3.84174e-11 -6.50927e-11 
148 3.01012e-11 7.13185e-11 -1.02918e-10 
152 5.56076e-11 4.11784e-11 -1.94449e-10 
156 4.57098e-11 -3.75208e-11 -1.77265e-10 
160 2.36545e-11 -5.10905e-11 -7.9335e-11 
164 -1.12682e-11 5.18135e-11 -6.99477e-11 
168 -1.65941e-11 2.56253e-11 -9.87531e-11 
172 -1.44281e-11 -2.47415e-11 -1.12601e-10 
176 -5.41598e-12 -3.84186e-11 -5.09421e-11 
180 -1.23595e-11 1.40971e-11 -1.62897e-11 
184 -1.74368e-11 6.79892e-12 -2.56751e-11 
188 -1.01611e-11 -4.46373e-12 -2.32107e-11 
192 -6.56609e-12 -1.07686e-11 -1.50742e-11 
