ITEM: TIMESTEP
3000
ITEM: NUMBER OF SURFS
192
ITEM: BOX BOUNDS oo rr rr
0 0.0005
0 0.0005
0 0.0005
ITEM: SURFS id f_f_drag_blocks[1] f_f_drag_blocks[2] f_f_drag_blocks[3] 
1 0 0 0 
5 0 0 0 
9 0 0 0 
13 0 0 0 
17 0 0 0 
21 0 0 0 
25 0 0 0 
29 0 0 0 
33 0 0 0 
37 0 0 0 
41 0 0 0 
45 0 0 0 
49 0 0 0 
53 0 0 0 
57 0 0 0 
61 0 0 0 
65 0 0 0 
69 0 0 0 
73 0 0 0 
77 0 0 0 
81 0 0 0 
85 0 0 0 
89 0 0 0 
93 0 0 0 
97 0 0 0 
101 0 0 0 
105 0 0 0 
109 0 0 0 
113 0 0 0 
117 0 0 0 
121 0 0 0 
125 0 0 0 
129 0 0 0 
133 0 0 0 
137 0 0 0 
141 0 0 0 
145 0 0 0 
149 0 0 0 
153 0 0 0 
157 0 0 0 
161 0 0 0 
165 0 0 0 
169 0 0 0 
173 0 0 0 
177 0 0 0 
181 0 0 0 
185 0 0 0 
189 0 0 0 
2 0 0 0 
6 0 0 0 
10 0 0 0 
14 0 0 0 
18 0 0 0 
22 0 0 0 
26 0 0 0 
30 0 0 0 
34 0 0 0 
38 0 0 0 
42 0 0 0 
46 0 0 0 
50 0 0 0 
54 0 0 0 
58 0 0 0 
62 0 0 0 
66 0 0 0 
70 0 0 0 
74 0 0 0 
78 0 0 0 
82 0 0 0 
86 0 0 0 
90 0 0 0 
94 0 0 0 
98 0 0 0 
102 0 0 0 
106 0 0 0 
110 0 0 0 
114 0 0 0 
118 0 0 0 
122 0 0 0 
126 0 0 0 
130 0 0 0 
134 0 0 0 
138 0 0 0 
142 0 0 0 
146 0 0 0 
150 0 0 0 
154 0 0 0 
158 0 0 0 
162 0 0 0 
166 0 0 0 
170 0 0 0 
174 0 0 0 
178 0 0 0 
182 0 0 0 
186 0 0 0 
190 0 0 0 
3 0 0 0 
7 0 0 0 
11 0 0 0 
15 0 0 0 
19 0 0 0 
23 0 0 0 
27 0 0 0 
31 0 0 0 
35 0 0 0 
39 0 0 0 
43 0 0 0 
47 0 0 0 
51 0 0 0 
55 0 0 0 
59 0 0 0 
63 0 0 0 
67 0 0 0 
71 0 0 0 
75 0 0 0 
79 0 0 0 
83 0 0 0 
87 0 0 0 
91 0 0 0 
95 0 0 0 
99 0 0 0 
103 0 0 0 
107 0 0 0 
111 0 0 0 
115 0 0 0 
119 0 0 0 
123 0 0 0 
127 0 0 0 
131 0 0 0 
135 0 0 0 
139 0 0 0 
143 0 0 0 
147 0 0 0 
151 0 0 0 
155 0 0 0 
159 0 0 0 
163 0 0 0 
167 0 0 0 
171 0 0 0 
175 0 0 0 
179 0 0 0 
183 0 0 0 
187 0 0 0 
191 0 0 0 
4 0 0 0 
8 0 0 0 
12 0 0 0 
16 0 0 0 
20 0 0 0 
24 0 0 0 
28 0 0 0 
32 0 0 0 
36 0 0 0 
40 0 0 0 
44 0 0 0 
48 0 0 0 
52 0 0 0 
56 0 0 0 
60 0 0 0 
64 0 0 0 
68 0 0 0 
72 0 0 0 
76 0 0 0 
80 0 0 0 
84 0 0 0 
88 0 0 0 
92 0 0 0 
96 0 0 0 
100 0 0 0 
104 0 0 0 
108 0 0 0 
112 0 0 0 
116 0 0 0 
120 0 0 0 
124 0 0 0 
128 0 0 0 
132 0 0 0 
136 0 0 0 
140 0 0 0 
144 0 0 0 
148 0 0 0 
152 0 0 0 
156 0 0 0 
160 0 0 0 
164 0 0 0 
168 0 0 0 
172 0 0 0 
176 0 0 0 
180 0 0 0 
184 0 0 0 
188 0 0 0 
192 0 0 0 
ITEM: TIMESTEP
4000
ITEM: NUMBER OF SURFS
192
ITEM: BOX BOUNDS oo rr rr
0 0.0005
0 0.0005
0 0.0005
ITEM: SURFS id f_f_drag_blocks[1] f_f_drag_blocks[2] f_f_drag_blocks[3] 
1 1.41498e-10 8.17556e-11 9.98832e-11 
5 2.25212e-10 1.43347e-10 5.78196e-11 
9 2.48054e-10 1.6646e-10 -5.27945e-11 
13 1.21658e-10 9.60778e-11 -9.64392e-11 
17 2.2918e-10 4.71955e-11 1.61376e-10 
21 5.1516e-10 1.06254e-10 1.06068e-10 
25 5.59187e-10 1.21504e-10 -1.17028e-10 
29 2.39402e-10 6.42232e-11 -1.72028e-10 
33 2.30759e-10 -4.07189e-11 1.40465e-10 
37 4.92768e-10 -9.85177e-11 9.20491e-11 
41 5.71693e-10 -1.13972e-10 -1.1876e-10 
45 2.92398e-10 -6.90468e-11 -1.82722e-10 
49 1.04879e-10 -5.65244e-11 5.53051e-11 
53 2.00159e-10 -1.25728e-10 3.20212e-11 
57 1.58873e-10 -1.02874e-10 -3.53176e-11 
61 1.1411e-10 -8.57973e-11 -7.15015e-11 
65 6.93584e-11 9.48273e-11 6.99603e-11 
69 1.29937e-10 1.78063e-10 5.91246e-11 
73 1.78868e-10 2.15045e-10 -6.26443e-11 
77 8.63071e-11 8.54821e-11 -7.52705e-11 
81 1.96875e-11 6.90073e-11 4.47952e-11 
85 6.26998e-11 2.43812e-10 6.17244e-11 
89 6.59322e-11 1.95997e-10 -5.0509e-11 
93 3.70257e-11 1.05505e-10 -8.02432e-11 
97 -3.38738e-12 4.44603e-11 2.99335e-11 
101 -1.11693e-11 1.08521e-10 2.77839e-11 
105 -1.87654e-11 1.03065e-10 -2.74665e-11 
109 -1.30406e-11 5.55838e-11 -3.28798e-11 
113 -4.29209e-12 1.2637e-11 7.9963e-12 
117 -1.15403e-11 1.59163e-11 4.67338e-12 
121 -6.60108e-12 1.15046e-11 -2.31351e-12 
125 -8.13134e-12 1.68935e-11 -7.84866e-12 
129 6.54604e-11 6.6877e-11 8.97878e-11 
133 1.13227e-10 4.06673e-11 1.55557e-10 
137 1.2389e-10 -4.42274e-11 1.58842e-10 
141 1.05865e-10 -9.79748e-11 1.19994e-10 
145 2.91496e-11 7.64893e-11 9.58037e-11 
149 5.8604e-11 4.93153e-11 2.08514e-10 
153 7.42037e-11 -5.14865e-11 2.1711e-10 
157 4.79524e-11 -1.01299e-10 1.40464e-10 
161 -2.69895e-12 3.30429e-11 5.52594e-11 
165 -4.54249e-12 7.87347e-12 5.89611e-11 
169 -1.15715e-11 -2.2011e-11 9.75858e-11 
173 -1.22839e-11 -3.68266e-11 5.65681e-11 
177 -1.51938e-11 1.77525e-11 2.7967e-11 
181 -9.39977e-12 1.16833e-12 2.03671e-11 
185 -1.73891e-11 -8.42801e-12 2.48204e-11 
189 -6.03899e-12 -1.10929e-11 1.24972e-11 
2 1.07329e-10 7.36547e-11 6.74959e-11 
6 2.37766e-10 1.60323e-10 4.8354e-11 
10 2.38687e-10 1.46828e-10 -3.86063e-11 
14 1.25321e-10 6.63696e-11 -7.09941e-11 
18 2.82756e-10 7.1521e-11 1.91302e-10 
22 4.74308e-10 1.07739e-10 1.08808e-10 
26 4.78666e-10 9.84924e-11 -8.55689e-11 
30 2.03608e-10 3.72041e-11 -1.25461e-10 
34 2.68839e-10 -7.69682e-11 1.76281e-10 
38 6.40931e-10 -1.48246e-10 1.54203e-10 
42 5.0191e-10 -1.05153e-10 -1.18565e-10 
46 2.10687e-10 -4.63328e-11 -1.54729e-10 
50 1.31551e-10 -9.63861e-11 9.58693e-11 
54 2.69773e-10 -1.79944e-10 6.83082e-11 
58 2.42264e-10 -1.53656e-10 -5.42569e-11 
62 1.58615e-10 -9.51339e-11 -1.17482e-10 
66 9.30238e-11 1.32672e-10 7.24388e-11 
70 1.08762e-10 1.39259e-10 2.58252e-11 
74 1.15288e-10 1.68548e-10 -3.05583e-11 
78 4.97606e-11 7.07667e-11 -4.71301e-11 
82 3.13439e-11 9.74173e-11 6.65046e-11 
86 6.26966e-11 1.9863e-10 3.95345e-11 
90 4.16663e-11 1.69859e-10 -3.76661e-11 
94 1.90648e-11 7.36987e-11 -5.60658e-11 
98 -9.1911e-12 7.62812e-11 4.71034e-11 
102 -9.12799e-12 9.17589e-11 1.52313e-11 
106 -1.41885e-11 1.15627e-10 -2.78454e-11 
110 -4.23575e-12 4.77586e-11 -3.6327e-11 
114 -1.14158e-11 1.48351e-11 1.44274e-11 
118 -1.47597e-11 3.26642e-11 8.78812e-12 
122 -1.32104e-11 2.5841e-11 -6.00076e-12 
126 -6.34417e-12 1.21672e-11 -7.27778e-12 
130 7.51413e-11 5.35181e-11 8.90955e-11 
134 1.21683e-10 3.46303e-11 1.57757e-10 
138 1.06418e-10 -3.52983e-11 1.56242e-10 
142 5.34229e-11 -3.82219e-11 7.21583e-11 
146 3.62749e-11 6.2869e-11 9.64287e-11 
150 6.37515e-11 4.17358e-11 1.79265e-10 
154 4.61756e-11 -4.1345e-11 1.89594e-10 
158 2.55e-11 -6.42147e-11 9.17869e-11 
162 -9.18918e-12 4.13437e-11 5.93949e-11 
166 -1.01392e-11 1.88152e-11 7.5164e-11 
170 -1.1213e-11 -2.06269e-11 1.09479e-10 
174 -4.9152e-12 -3.83972e-11 5.05105e-11 
178 -6.84085e-12 9.21117e-12 9.42656e-12 
182 -1.86332e-11 9.86546e-12 2.39933e-11 
186 -1.36199e-11 -5.89274e-12 2.36144e-11 
190 -7.08402e-12 -1.60392e-11 1.90753e-11 
3 -9.88624e-12 8.65644e-12 1.33443e-11 
7 -1.21826e-11 1.1666e-11 3.6966e-12 
11 -1.18419e-11 9.40146e-12 -4.66588e-12 
15 -1.56173e-11 1.75036e-11 -1.46995e-11 
19 -1.83059e-12 9.79497e-13 1.94457e-12 
23 -1.15929e-11 3.18406e-12 6.69239e-12 
27 -1.07379e-11 5.65732e-12 -1.39181e-12 
31 -6.90058e-12 1.96133e-12 -9.11753e-12 
35 -4.59762e-12 -1.53119e-12 2.14326e-12 
39 -1.77451e-11 -6.08626e-12 3.48827e-12 
43 -1.27369e-11 -2.49899e-12 -3.20512e-12 
47 -1.39449e-11 -5.84943e-12 -8.99433e-12 
51 -4.86441e-12 -2.35559e-12 5.51251e-12 
55 -5.8492e-12 -6.90541e-12 2.56276e-12 
59 -1.07954e-11 -9.69279e-12 -1.64168e-12 
63 -8.5293e-12 -4.10358e-12 -3.86402e-12 
67 5.17951e-11 -7.47525e-11 5.54778e-11 
71 1.12509e-10 -1.61789e-10 3.83061e-11 
75 1.19551e-10 -1.56406e-10 -3.90504e-11 
79 1.046e-10 -1.16236e-10 -9.04212e-11 
83 1.71369e-11 -7.74693e-11 5.71781e-11 
87 5.69348e-11 -2.0838e-10 5.57011e-11 
91 7.43981e-11 -2.4318e-10 -6.03517e-11 
95 4.34704e-11 -1.18604e-10 -8.32227e-11 
99 -1.15476e-11 -5.32303e-11 3.28852e-11 
103 -1.31643e-11 -1.06891e-10 2.1235e-11 
107 -9.49016e-12 -8.23001e-11 -2.35848e-11 
111 -9.40817e-12 -6.45789e-11 -4.25867e-11 
115 -9.52075e-12 -1.85602e-11 1.38911e-11 
119 -1.25816e-11 -1.41085e-11 2.1167e-12 
123 -1.60258e-11 -2.57969e-11 -2.19338e-12 
127 -1.54627e-11 -2.18095e-11 -1.24857e-11 
131 4.81098e-11 5.25373e-11 -6.64111e-11 
135 1.15262e-10 4.4438e-11 -1.62992e-10 
139 1.66581e-10 -5.93181e-11 -2.13763e-10 
143 9.30773e-11 -7.67031e-11 -9.4272e-11 
147 2.92851e-11 7.61389e-11 -1.02147e-10 
151 5.25555e-11 4.63661e-11 -1.80897e-10 
155 6.63349e-11 -4.94238e-11 -2.18194e-10 
159 4.32917e-11 -8.37412e-11 -1.18429e-10 
163 -6.68288e-12 2.58049e-11 -4.9853e-11 
167 -1.72058e-11 1.72657e-11 -9.77706e-11 
171 -1.27036e-11 -2.06794e-11 -1.03508e-10 
175 -1.37296e-11 -4.89295e-11 -7.09835e-11 
179 -4.30239e-12 7.75315e-12 -1.03576e-11 
183 -5.63779e-12 5.74227e-13 -1.53571e-11 
187 -1.35019e-11 -2.53445e-12 -1.8632e-11 
191 -5.87901e-12 -7.3382e-12 -9.14059e-12 
4 -1.08432e-12 4.20609e-14 3.87206e-13 
8 -1.11311e-11 8.41057e-12 2.53374e-12 
12 -1.24623e-11 9.02751e-12 -5.9884e-12 
16 -1.26152e-11 5.54996e-12 -5.93282e-12 
20 -1.6202e-11 3.4206e-12 1.45013e-11 
24 -7.55175e-12 2.90803e-12 2.35476e-12 
28 -7.40707e-12 2.42704e-12 -2.88435e-12 
32 -8.92433e-12 3.41603e-12 -8.48083e-12 
36 -9.29505e-12 -1.30433e-12 7.61581e-12 
40 -1.70928e-11 -5.30058e-12 2.12771e-12 
44 -7.69976e-12 -1.57129e-12 -1.60743e-12 
48 -4.19549e-12 -2.44657e-12 -3.96593e-12 
52 -1.43728e-11 -1.50434e-11 1.48282e-11 
56 -1.35259e-11 -1.19788e-11 2.53316e-12 
60 -1.19006e-11 -6.31732e-12 -1.94947e-12 
64 -8.44202e-12 -7.8754e-12 -1.14444e-11 
68 8.49816e-11 -9.90108e-11 6.29038e-11 
72 1.25125e-10 -1.5761e-10 3.38937e-11 
76 1.1752e-10 -1.68257e-10 -3.03218e-11 
80 6.03281e-11 -8.86007e-11 -5.2484e-11 
84 3.55848e-11 -1.20598e-10 7.45403e-11 
88 5.56611e-11 -1.95922e-10 4.51271e-11 
92 6.95551e-11 -1.98299e-10 -3.67007e-11 
96 1.53816e-11 -6.27395e-11 -4.40764e-11 
100 -1.11573e-11 -4.9577e-11 3.69297e-11 
104 -2.36923e-11 -1.09008e-10 2.76013e-11 
108 -1.85029e-11 -9.28475e-11 -1.75723e-11 
112 -8.21431e-12 -5.62864e-11 -3.93771e-11 
116 -1.3892e-11 -1.99041e-11 1.36528e-11 
120 -1.26907e-11 -2.4958e-11 5.17687e-12 
124 -2.15751e-11 -3.86826e-11 -1.07109e-11 
128 -1.09863e-11 -2.45228e-11 -1.4644e-11 
132 8.70562e-11 6.374e-11 -9.82627e-11 
136 1.14917e-10 2.99077e-11 -1.45281e-10 
140 1.00693e-10 -3.0726e-11 -1.46001e-10 
144 5.3801e-11 -4.52099e-11 -8.24011e-11 
148 4.35642e-11 9.0808e-11 -1.27317e-10 
152 5.32413e-11 2.7613e-11 -1.67691e-10 
156 5.99819e-11 -3.83306e-11 -2.05404e-10 
160 1.74272e-11 -4.59818e-11 -7.45601e-11 
164 -7.89233e-12 5.03616e-11 -6.73913e-11 
168 -1.83075e-11 3.4202e-11 -1.1971e-10 
172 -7.98551e-12 -2.78451e-11 -1.03952e-10 
176 -7.66001e-12 -3.75859e-11 -4.84791e-11 
180 -1.3172e-11 1.48974e-11 -1.65996e-11 
184 -1.62268e-11 6.48725e-12 -3.05862e-11 
188 -1.02416e-11 -4.95418e-12 -1.9127e-11 
192 -1.02524e-11 -1.19073e-11 -1.81017e-11 
