ITEM: TIMESTEP
10000
ITEM: NUMBER OF SURFS
192
ITEM: BOX BOUNDS oo rr rr
0 0.0005
0 0.0005
0 0.0005
ITEM: SURFS id f_f_drag_blocks[1] f_f_drag_blocks[2] f_f_drag_blocks[3] 
1 0 0 0 
5 0 0 0 
9 0 0 0 
13 0 0 0 
17 0 0 0 
21 0 0 0 
25 0 0 0 
29 0 0 0 
33 0 0 0 
37 0 0 0 
41 0 0 0 
45 0 0 0 
49 0 0 0 
53 0 0 0 
57 0 0 0 
61 0 0 0 
65 0 0 0 
69 0 0 0 
73 0 0 0 
77 0 0 0 
81 0 0 0 
85 0 0 0 
89 0 0 0 
93 0 0 0 
97 0 0 0 
101 0 0 0 
105 0 0 0 
109 0 0 0 
113 0 0 0 
117 0 0 0 
121 0 0 0 
125 0 0 0 
129 0 0 0 
133 0 0 0 
137 0 0 0 
141 0 0 0 
145 0 0 0 
149 0 0 0 
153 0 0 0 
157 0 0 0 
161 0 0 0 
165 0 0 0 
169 0 0 0 
173 0 0 0 
177 0 0 0 
181 0 0 0 
185 0 0 0 
189 0 0 0 
2 0 0 0 
6 0 0 0 
10 0 0 0 
14 0 0 0 
18 0 0 0 
22 0 0 0 
26 0 0 0 
30 0 0 0 
34 0 0 0 
38 0 0 0 
42 0 0 0 
46 0 0 0 
50 0 0 0 
54 0 0 0 
58 0 0 0 
62 0 0 0 
66 0 0 0 
70 0 0 0 
74 0 0 0 
78 0 0 0 
82 0 0 0 
86 0 0 0 
90 0 0 0 
94 0 0 0 
98 0 0 0 
102 0 0 0 
106 0 0 0 
110 0 0 0 
114 0 0 0 
118 0 0 0 
122 0 0 0 
126 0 0 0 
130 0 0 0 
134 0 0 0 
138 0 0 0 
142 0 0 0 
146 0 0 0 
150 0 0 0 
154 0 0 0 
158 0 0 0 
162 0 0 0 
166 0 0 0 
170 0 0 0 
174 0 0 0 
178 0 0 0 
182 0 0 0 
186 0 0 0 
190 0 0 0 
3 0 0 0 
7 0 0 0 
11 0 0 0 
15 0 0 0 
19 0 0 0 
23 0 0 0 
27 0 0 0 
31 0 0 0 
35 0 0 0 
39 0 0 0 
43 0 0 0 
47 0 0 0 
51 0 0 0 
55 0 0 0 
59 0 0 0 
63 0 0 0 
67 0 0 0 
71 0 0 0 
75 0 0 0 
79 0 0 0 
83 0 0 0 
87 0 0 0 
91 0 0 0 
95 0 0 0 
99 0 0 0 
103 0 0 0 
107 0 0 0 
111 0 0 0 
115 0 0 0 
119 0 0 0 
123 0 0 0 
127 0 0 0 
131 0 0 0 
135 0 0 0 
139 0 0 0 
143 0 0 0 
147 0 0 0 
151 0 0 0 
155 0 0 0 
159 0 0 0 
163 0 0 0 
167 0 0 0 
171 0 0 0 
175 0 0 0 
179 0 0 0 
183 0 0 0 
187 0 0 0 
191 0 0 0 
4 0 0 0 
8 0 0 0 
12 0 0 0 
16 0 0 0 
20 0 0 0 
24 0 0 0 
28 0 0 0 
32 0 0 0 
36 0 0 0 
40 0 0 0 
44 0 0 0 
48 0 0 0 
52 0 0 0 
56 0 0 0 
60 0 0 0 
64 0 0 0 
68 0 0 0 
72 0 0 0 
76 0 0 0 
80 0 0 0 
84 0 0 0 
88 0 0 0 
92 0 0 0 
96 0 0 0 
100 0 0 0 
104 0 0 0 
108 0 0 0 
112 0 0 0 
116 0 0 0 
120 0 0 0 
124 0 0 0 
128 0 0 0 
132 0 0 0 
136 0 0 0 
140 0 0 0 
144 0 0 0 
148 0 0 0 
152 0 0 0 
156 0 0 0 
160 0 0 0 
164 0 0 0 
168 0 0 0 
172 0 0 0 
176 0 0 0 
180 0 0 0 
184 0 0 0 
188 0 0 0 
192 0 0 0 
ITEM: TIMESTEP
11000
ITEM: NUMBER OF SURFS
192
ITEM: BOX BOUNDS oo rr rr
0 0.0005
0 0.0005
0 0.0005
ITEM: SURFS id f_f_drag_blocks[1] f_f_drag_blocks[2] f_f_drag_blocks[3] 
1 7.4012e-11 6.38263e-11 6.38533e-11 
5 2.33854e-10 1.45146e-10 7.4586e-11 
9 2.92878e-10 1.86779e-10 -6.14101e-11 
13 9.23595e-11 5.69051e-11 -7.28901e-11 
17 2.42381e-10 2.39199e-11 1.64296e-10 
21 5.32077e-10 1.103e-10 1.1659e-10 
25 5.28374e-10 1.39652e-10 -1.36326e-10 
29 2.81488e-10 5.4687e-11 -1.65361e-10 
33 2.59095e-10 -5.05657e-11 1.43456e-10 
37 5.9618e-10 -1.4015e-10 9.3376e-11 
41 5.99215e-10 -1.37454e-10 -1.11787e-10 
45 3.56339e-10 -8.55171e-11 -1.96718e-10 
49 1.19543e-10 -5.38855e-11 5.992e-11 
53 2.44471e-10 -1.64072e-10 5.98337e-11 
57 1.66952e-10 -1.1201e-10 -3.93357e-11 
61 1.71909e-10 -1.01113e-10 -9.06339e-11 
65 3.80889e-11 5.09008e-11 4.43089e-11 
69 1.02965e-10 1.45458e-10 4.89358e-11 
73 1.16168e-10 1.48178e-10 -3.31399e-11 
77 1.22105e-10 1.3687e-10 -1.0284e-10 
81 4.71212e-11 1.24017e-10 9.0447e-11 
85 5.1103e-11 1.90267e-10 5.19309e-11 
89 3.78528e-11 1.14737e-10 -3.16474e-11 
93 4.82271e-11 1.41403e-10 -8.80636e-11 
97 -7.35934e-12 4.83012e-11 2.78827e-11 
101 -1.77838e-11 1.0495e-10 2.17868e-11 
105 -1.48209e-11 1.25562e-10 -4.28783e-11 
109 -1.06962e-11 4.98504e-11 -4.44593e-11 
113 -7.21314e-12 1.53968e-11 7.7897e-12 
117 -1.59308e-11 2.5414e-11 1.42274e-12 
121 -3.70553e-12 1.35134e-11 -3.5809e-12 
125 -8.44281e-12 2.17461e-11 -1.65175e-11 
129 5.47015e-11 6.55588e-11 7.26704e-11 
133 1.39785e-10 3.74044e-11 1.87328e-10 
137 1.60867e-10 -6.17303e-11 1.96603e-10 
141 1.17636e-10 -9.07212e-11 1.35457e-10 
145 1.68369e-11 4.06553e-11 4.25161e-11 
149 7.52814e-11 5.59383e-11 2.28071e-10 
153 6.90246e-11 -5.19711e-11 1.86208e-10 
157 5.00797e-11 -9.38065e-11 1.45685e-10 
161 -4.63205e-12 4.24382e-11 7.168e-11 
165 -1.59427e-11 2.9317e-11 1.13501e-10 
169 -5.04464e-12 -2.06656e-11 9.46922e-11 
173 -1.41212e-11 -4.96209e-11 6.05839e-11 
177 -1.6225e-11 1.9596e-11 2.82062e-11 
181 -3.73721e-12 3.25336e-12 1.78004e-12 
185 -1.89744e-11 -8.42289e-12 2.94685e-11 
189 -8.79929e-13 -2.22051e-12 2.37809e-12 
2 1.30178e-10 9.57329e-11 6.30301e-11 
6 1.85559e-10 1.35968e-10 6.04093e-11 
10 1.32097e-10 7.50006e-11 -3.0437e-11 
14 1.45074e-10 7.7558e-11 -6.80095e-11 
18 1.87329e-10 4.56261e-11 1.02106e-10 
22 5.68247e-10 1.23644e-10 1.35366e-10 
26 4.31069e-10 1.05633e-10 -9.81126e-11 
30 1.79815e-10 2.78804e-11 -1.24653e-10 
34 2.33588e-10 -5.08889e-11 1.47676e-10 
38 5.49898e-10 -1.40961e-10 1.10726e-10 
42 4.75424e-10 -9.34334e-11 -1.28022e-10 
46 2.06358e-10 -3.47083e-11 -1.16233e-10 
50 1.02794e-10 -7.79666e-11 8.22375e-11 
54 2.65004e-10 -1.88111e-10 5.75251e-11 
58 2.88047e-10 -1.80497e-10 -7.28214e-11 
62 1.32133e-10 -9.32545e-11 -8.94776e-11 
66 1.11719e-10 1.43787e-10 8.48464e-11 
70 1.12452e-10 1.28045e-10 3.06247e-11 
74 7.67481e-11 1.24945e-10 -2.12758e-11 
78 5.20961e-11 7.9389e-11 -3.92019e-11 
82 7.27295e-11 2.26831e-10 1.39756e-10 
86 6.89937e-11 2.09782e-10 4.61026e-11 
90 6.27349e-11 2.61436e-10 -5.79903e-11 
94 2.3411e-11 9.54559e-11 -5.4547e-11 
98 -4.43666e-12 5.90343e-11 4.9843e-11 
102 -2.67353e-11 7.99159e-11 2.45838e-11 
106 -1.14556e-12 1.0509e-10 -2.68296e-11 
110 -3.93546e-12 4.68448e-11 -3.97134e-11 
114 -1.8234e-11 2.68371e-11 1.40705e-11 
118 -1.01342e-11 1.39152e-11 2.08106e-13 
122 -1.07366e-11 4.12948e-11 -6.0412e-12 
126 -2.35839e-11 3.06363e-11 -2.11174e-11 
130 6.1798e-11 5.15493e-11 8.42379e-11 
134 1.11531e-10 2.66844e-11 1.59811e-10 
138 7.32553e-11 -2.38362e-11 9.66508e-11 
142 4.36212e-11 -3.72725e-11 6.54717e-11 
146 3.62681e-11 7.00708e-11 9.79739e-11 
150 4.70412e-11 2.65381e-11 1.33265e-10 
154 7.47813e-11 -5.9527e-11 2.89542e-10 
158 2.43663e-11 -5.93074e-11 7.5843e-11 
162 5.39126e-13 5.56821e-11 7.46627e-11 
166 -2.81279e-11 2.91111e-11 9.86524e-11 
170 -1.39761e-12 -5.26811e-12 7.44059e-11 
174 -8.89704e-12 -2.25663e-11 2.79656e-11 
178 -1.63733e-11 2.25693e-11 1.90966e-11 
182 -2.27373e-11 8.47232e-12 3.91437e-11 
186 -2.39645e-11 -1.29402e-11 3.31159e-11 
190 -5.11712e-12 -4.70769e-12 5.97803e-12 
3 -1.15422e-11 8.14521e-12 8.09191e-12 
7 0 0 0 
11 0 0 0 
15 -2.08603e-11 1.88321e-11 -2.87209e-11 
19 0 0 0 
23 -1.20542e-11 1.73361e-12 7.04023e-12 
27 -6.15035e-12 2.57707e-12 -2.25477e-12 
31 -1.90404e-11 1.06412e-11 -2.04667e-11 
35 -5.52424e-12 -1.42074e-12 3.01139e-12 
39 -7.69506e-12 1.17168e-12 -9.05169e-13 
43 0 0 0 
47 -8.92268e-12 1.58542e-12 -8.61594e-12 
51 -1.62658e-12 -4.43745e-12 -1.43804e-12 
55 0 0 0 
59 -7.49015e-12 -4.35966e-12 -9.88213e-13 
63 -1.79559e-11 -2.52426e-12 -5.91147e-12 
67 4.52268e-11 -5.09542e-11 3.44865e-11 
71 1.10923e-10 -1.41777e-10 3.76087e-11 
75 1.03437e-10 -1.1946e-10 -1.44973e-11 
79 9.56221e-11 -1.00218e-10 -8.52377e-11 
83 6.38257e-11 -1.44741e-10 8.71246e-11 
87 6.32971e-11 -1.84375e-10 5.05612e-11 
91 4.8326e-11 -1.59706e-10 -3.45469e-11 
95 3.09111e-11 -1.13089e-10 -6.49986e-11 
99 1.86681e-12 -2.50734e-11 1.87943e-11 
103 -7.51489e-12 -3.60085e-11 1.06307e-11 
107 -1.12073e-11 -5.76251e-11 -1.03464e-13 
111 -5.08216e-12 -5.69971e-11 -3.17666e-11 
115 -4.99528e-12 -1.95682e-11 7.49435e-12 
119 -4.13904e-12 -6.75668e-12 1.5321e-12 
123 -7.6793e-13 -7.16299e-12 -5.38952e-12 
127 -2.87895e-12 -1.58647e-11 -1.1228e-11 
131 3.14009e-11 2.65111e-11 -3.96616e-11 
135 1.02623e-10 3.83104e-11 -1.46145e-10 
139 1.14333e-10 -4.00631e-11 -1.73109e-10 
143 6.31879e-11 -6.20097e-11 -8.11717e-11 
147 1.95957e-11 4.15323e-11 -6.40183e-11 
151 4.57834e-11 4.65845e-11 -1.95984e-10 
155 7.59027e-11 -9.05655e-11 -2.99991e-10 
159 4.06306e-11 -9.20679e-11 -1.05822e-10 
163 -3.69814e-12 1.86236e-11 -3.35823e-11 
167 -1.39413e-11 2.17528e-11 -9.38114e-11 
171 -1.21141e-11 -2.21903e-11 -1.42775e-10 
175 -1.22638e-11 -6.01651e-11 -8.11183e-11 
179 2.58694e-12 4.76018e-12 -1.28578e-11 
183 -1.69349e-12 6.90831e-13 -7.64749e-12 
187 -8.01881e-12 -7.31797e-12 -1.81825e-11 
191 -3.14391e-12 -3.68912e-12 -5.89326e-12 
4 -5.8242e-12 3.08971e-12 3.06858e-12 
8 -2.13722e-11 1.67057e-11 -6.89343e-12 
12 -2.18508e-11 2.38913e-11 -1.16734e-12 
16 0 0 0 
20 -2.95481e-11 1.18866e-11 2.87535e-11 
24 -2.27616e-12 3.05423e-12 5.45138e-12 
28 -1.03158e-11 5.13284e-12 -6.73522e-12 
32 -4.13517e-12 2.44573e-13 -4.41106e-12 
36 -5.31523e-12 -1.06352e-12 9.852e-12 
40 0 0 0 
44 -1.3371e-11 -1.74833e-12 -2.36249e-12 
48 -1.06701e-11 4.65154e-12 -1.13209e-11 
52 -2.84756e-12 -1.17623e-11 7.38925e-12 
56 -1.16763e-11 -1.21528e-11 1.43581e-12 
60 -3.26924e-12 -5.08111e-12 -9.86205e-13 
64 0 0 0 
68 8.51252e-11 -9.90014e-11 5.68077e-11 
72 8.59255e-11 -1.04088e-10 2.41404e-11 
76 1.09672e-10 -1.66001e-10 -3.7138e-11 
80 4.64086e-11 -6.19099e-11 -3.92606e-11 
84 4.03162e-11 -1.06259e-10 7.0341e-11 
88 6.95539e-11 -2.41613e-10 4.2623e-11 
92 4.08823e-11 -1.62637e-10 -4.37028e-11 
96 3.50453e-11 -1.10637e-10 -8.17737e-11 
100 -1.31533e-11 -8.25433e-11 4.99685e-11 
104 -3.79747e-11 -1.55085e-10 4.08932e-11 
108 -7.08012e-12 -7.27306e-11 -1.33339e-11 
112 3.1495e-13 -5.10219e-11 -3.34591e-11 
116 -1.22442e-11 -2.26509e-11 7.88631e-12 
120 -4.93142e-12 -1.32321e-11 -1.19107e-12 
124 -4.21682e-12 -1.94415e-11 -1.63065e-12 
128 -7.82448e-12 -2.01158e-11 -2.39758e-11 
132 4.10216e-11 2.74217e-11 -5.15427e-11 
136 1.64611e-10 1.97705e-11 -1.99546e-10 
140 7.70228e-11 -1.74502e-11 -1.13053e-10 
144 4.44009e-11 -4.11807e-11 -6.45883e-11 
148 4.01116e-11 6.13017e-11 -1.00112e-10 
152 6.39429e-11 3.92578e-11 -2.16362e-10 
156 6.66601e-11 -3.01232e-11 -2.05009e-10 
160 2.96915e-11 -6.06033e-11 -9.59076e-11 
164 -1.94834e-11 6.18334e-11 -8.71612e-11 
168 -1.04867e-11 1.93565e-11 -8.34654e-11 
172 -2.69173e-11 -2.88872e-11 -1.10952e-10 
176 -5.89063e-12 -4.34811e-11 -5.49649e-11 
180 -4.98572e-12 8.09025e-12 -8.29588e-12 
184 -2.56007e-11 9.83546e-12 -4.54493e-11 
188 -1.56576e-11 -7.00555e-12 -2.48729e-11 
192 -1.28287e-11 -2.2506e-11 -3.36419e-11 
ITEM: TIMESTEP
12000
ITEM: NUMBER OF SURFS
192
ITEM: BOX BOUNDS oo rr rr
0 0.0005
0 0.0005
0 0.0005
ITEM: SURFS id f_f_drag_blocks[1] f_f_drag_blocks[2] f_f_drag_blocks[3] 
1 1.1903e-10 7.71662e-11 9.22285e-11 
5 2.30396e-10 1.35138e-10 5.71034e-11 
9 3.11974e-10 2.13976e-10 -6.27487e-11 
13 1.41714e-10 1.07656e-10 -1.11585e-10 
17 2.48107e-10 3.92766e-11 1.52655e-10 
21 4.86607e-10 8.23511e-11 1.43927e-10 
25 7.34448e-10 1.47711e-10 -1.66945e-10 
29 2.83939e-10 7.05689e-11 -2.06283e-10 
33 2.15123e-10 -3.29989e-11 1.26296e-10 
37 3.9643e-10 -5.95814e-11 8.06773e-11 
41 5.36428e-10 -1.2215e-10 -9.31337e-11 
45 2.92199e-10 -7.9738e-11 -1.69521e-10 
49 8.57214e-11 -5.93922e-11 5.21118e-11 
53 2.38674e-10 -1.46776e-10 3.42575e-11 
57 3.0252e-10 -1.79541e-10 -7.87562e-11 
61 1.1259e-10 -8.82457e-11 -6.62817e-11 
65 6.4815e-11 8.55133e-11 6.92969e-11 
69 1.29023e-10 1.71229e-10 6.08118e-11 
73 1.51875e-10 1.91008e-10 -5.04067e-11 
77 1.22152e-10 1.51592e-10 -1.31101e-10 
81 3.89247e-11 1.52554e-10 9.19263e-11 
85 6.85227e-11 2.17446e-10 4.39427e-11 
89 6.58861e-11 3.01915e-10 -5.72181e-11 
93 2.52075e-11 7.47041e-11 -4.40308e-11 
97 -7.9228e-12 3.91801e-11 2.89789e-11 
101 -9.64108e-12 2.91265e-11 8.11676e-12 
105 -1.39214e-11 6.24091e-11 -2.08455e-11 
109 -3.3414e-12 9.80714e-11 -6.48103e-11 
113 -1.9746e-11 3.14904e-11 2.55274e-11 
117 -8.28612e-12 1.32012e-11 6.47691e-12 
121 -9.18607e-12 1.51857e-11 -1.2791e-12 
125 -8.64907e-12 1.57504e-11 -8.53465e-12 
129 3.68938e-11 3.97236e-11 6.23103e-11 
133 1.15661e-10 2.62306e-11 1.56202e-10 
137 1.57531e-10 -4.81237e-11 1.79585e-10 
141 9.60974e-11 -1.05462e-10 1.19157e-10 
145 2.12623e-11 4.65675e-11 4.55233e-11 
149 9.33014e-11 5.31997e-11 2.48735e-10 
153 6.72651e-11 -6.01297e-11 1.87353e-10 
157 4.83441e-11 -8.41694e-11 1.07574e-10 
161 -6.74316e-12 2.39036e-11 3.63767e-11 
165 -1.45464e-11 1.30215e-11 1.02447e-10 
169 -3.33346e-12 -1.78086e-11 7.0124e-11 
173 1.01486e-13 -5.15682e-11 6.1865e-11 
177 -6.22902e-13 2.95331e-12 1.23849e-11 
181 -1.07588e-11 5.09313e-12 2.185e-11 
185 -1.26976e-11 -7.18133e-12 2.0028e-11 
189 -8.75088e-12 -1.44538e-11 1.38904e-11 
2 1.57004e-10 8.76662e-11 9.1704e-11 
6 1.71431e-10 1.05913e-10 3.02359e-11 
10 1.93835e-10 1.09824e-10 -3.9393e-11 
14 1.60254e-10 8.42589e-11 -9.235e-11 
18 1.81965e-10 2.71304e-11 1.23054e-10 
22 6.60359e-10 1.58276e-10 1.30161e-10 
26 5.38787e-10 1.15127e-10 -1.16552e-10 
30 1.56294e-10 2.08571e-11 -9.05346e-11 
34 2.76234e-10 -6.21811e-11 1.92808e-10 
38 7.28742e-10 -1.59401e-10 1.51292e-10 
42 5.11856e-10 -1.17498e-10 -1.24157e-10 
46 1.91661e-10 -2.88483e-11 -1.29576e-10 
50 1.73637e-10 -1.44997e-10 1.27334e-10 
54 2.7789e-10 -1.79266e-10 8.24601e-11 
58 2.78091e-10 -1.6487e-10 -6.47863e-11 
62 7.01378e-11 -6.56836e-11 -5.78477e-11 
66 6.46969e-11 6.3733e-11 3.80243e-11 
70 1.10957e-10 1.31194e-10 1.71907e-11 
74 8.96686e-11 1.59387e-10 -3.1606e-11 
78 3.69676e-11 4.87872e-11 -3.51254e-11 
82 3.18701e-11 1.23443e-10 7.27632e-11 
86 8.57424e-11 2.39059e-10 4.98199e-11 
90 6.19643e-11 1.91751e-10 -1.73883e-11 
94 3.85784e-11 1.71073e-10 -1.26162e-10 
98 -1.20527e-11 6.48247e-11 4.21491e-11 
102 -3.86905e-11 1.96707e-10 6.40013e-11 
106 -6.82569e-12 1.16754e-10 -1.26314e-11 
110 -5.26135e-12 4.44295e-11 -3.15823e-11 
114 -1.47205e-11 2.27581e-11 2.33711e-11 
118 -8.71532e-12 2.66352e-11 -4.13602e-13 
122 -1.44467e-11 1.97839e-11 -2.9922e-13 
126 -4.28484e-12 2.57165e-11 -1.02399e-11 
130 8.16033e-11 5.35702e-11 7.61923e-11 
134 7.50312e-11 2.23989e-11 1.05241e-10 
138 7.19324e-11 -2.94889e-11 9.11233e-11 
142 7.14801e-11 -6.68601e-11 1.26277e-10 
146 3.0687e-11 6.05895e-11 1.09237e-10 
150 7.32138e-11 5.32377e-11 1.8271e-10 
154 4.1445e-11 -1.67493e-11 1.49284e-10 
158 2.74176e-11 -3.5923e-11 8.14102e-11 
162 1.36936e-12 1.83159e-11 3.78445e-11 
166 -3.24426e-13 3.13992e-11 8.5868e-11 
170 -1.72819e-11 -2.09849e-11 1.0714e-10 
174 -7.36722e-12 -2.36726e-11 3.08308e-11 
178 -1.91044e-12 4.89026e-12 5.27715e-13 
182 -2.00391e-11 9.62032e-12 2.32365e-11 
186 -1.23284e-11 -4.89111e-12 2.4908e-11 
190 -1.00637e-11 -1.41454e-11 2.31336e-11 
3 -1.04844e-11 6.66298e-12 8.78187e-12 
7 -1.1057e-11 3.54048e-12 1.41683e-12 
11 -1.8743e-11 2.18428e-11 -1.21449e-11 
15 0 0 0 
19 0 0 0 
23 0 0 0 
27 0 0 0 
31 -2.37493e-11 8.2411e-12 -1.07486e-11 
35 -4.71532e-12 -3.99489e-12 6.47701e-12 
39 0 0 0 
43 -1.51238e-11 -2.5039e-12 -1.68547e-12 
47 -2.89728e-12 -1.39989e-12 -2.70041e-12 
51 -3.15361e-12 -7.63239e-12 6.38906e-12 
55 -8.03971e-12 -4.16903e-13 -1.7886e-12 
59 0 0 0 
63 -1.0239e-11 -1.87282e-12 -6.13276e-12 
67 5.87987e-11 -7.49168e-11 4.55362e-11 
71 1.3363e-10 -1.9393e-10 5.48416e-11 
75 1.07722e-10 -1.4915e-10 -4.37925e-11 
79 9.33242e-11 -9.18997e-11 -5.93806e-11 
83 1.23374e-11 -6.06553e-11 4.40488e-11 
87 3.57458e-11 -1.93086e-10 5.95805e-11 
91 6.23715e-11 -2.14072e-10 -5.96007e-11 
95 3.34633e-11 -1.21382e-10 -9.54536e-11 
99 -7.01047e-12 -4.46684e-11 3.10511e-11 
103 -1.29983e-11 -6.81171e-11 1.92977e-11 
107 -4.49926e-13 -1.0015e-10 -3.63043e-11 
111 -7.72825e-12 -3.92532e-11 -2.24249e-11 
115 5.98712e-14 -3.58271e-12 3.67393e-12 
119 -7.95471e-12 -1.39949e-11 -5.24737e-12 
123 -1.90413e-11 -3.76707e-11 -7.60887e-12 
127 -5.51205e-12 -8.40929e-12 -1.26149e-11 
131 7.23876e-11 7.8486e-11 -1.10562e-10 
135 1.58778e-10 5.73975e-11 -2.02666e-10 
139 1.60976e-10 -5.16969e-11 -2.01674e-10 
143 1.34773e-10 -1.25926e-10 -1.37639e-10 
147 1.66392e-11 5.12914e-11 -7.27328e-11 
151 4.6546e-11 4.97377e-11 -2.04157e-10 
155 9.73466e-11 -7.47543e-11 -2.69665e-10 
159 7.49818e-11 -1.15733e-10 -1.64677e-10 
163 -6.9706e-12 2.39839e-11 -3.10819e-11 
167 -1.63611e-11 2.30526e-11 -1.15074e-10 
171 -1.19429e-11 -3.71373e-12 -4.73469e-11 
175 -7.24293e-12 -2.28624e-11 -3.64418e-11 
179 -1.26339e-11 2.32034e-11 -4.04728e-11 
183 -4.64746e-12 9.73539e-12 -2.56389e-11 
187 -1.12824e-11 1.76003e-12 -2.70098e-11 
191 -5.00539e-12 -1.39024e-12 -6.17774e-12 
4 -1.73029e-12 4.41884e-12 3.48816e-12 
8 -2.79366e-11 2.57908e-11 5.24284e-12 
12 -1.03345e-11 1.0445e-11 -4.17754e-12 
16 0 0 0 
20 -5.91295e-12 -1.27689e-12 8.14991e-12 
24 -3.08302e-11 4.8233e-12 2.72805e-12 
28 -2.76586e-11 1.0374e-11 -5.92885e-12 
32 0 0 0 
36 -1.75683e-11 -6.50535e-12 1.07478e-11 
40 -2.35922e-11 -1.01764e-11 8.30599e-12 
44 -2.26781e-12 6.09774e-15 -1.10983e-12 
48 -1.74031e-11 -3.45089e-12 -8.2046e-12 
52 0 0 0 
56 -2.46983e-11 -1.59373e-11 7.69112e-12 
60 0 0 0 
64 -1.11376e-11 -1.13126e-11 -6.66083e-12 
68 8.79568e-11 -8.6681e-11 6.53475e-11 
72 1.08674e-10 -1.34455e-10 1.55529e-11 
76 1.15073e-10 -1.88455e-10 -4.8811e-11 
80 3.55187e-11 -6.0361e-11 -2.82275e-11 
84 1.89054e-11 -5.99255e-11 3.48675e-11 
88 4.86854e-11 -1.82078e-10 4.90046e-11 
92 3.95557e-11 -1.28063e-10 -2.82766e-11 
96 2.44577e-11 -6.91615e-11 -4.39095e-11 
100 -6.44782e-12 -6.40499e-11 6.37627e-11 
104 -1.44458e-11 -1.15945e-10 3.46407e-11 
108 -2.22304e-11 -8.61735e-11 -1.83692e-11 
112 -1.18952e-11 -3.60492e-11 -2.62653e-11 
116 -3.94035e-12 -1.07995e-11 7.1771e-13 
120 -3.43109e-11 -3.0602e-11 1.22601e-11 
124 -1.48633e-11 -5.06226e-11 -3.7398e-12 
128 -3.44387e-12 -1.65186e-11 -2.61794e-12 
132 1.03593e-10 7.04245e-11 -1.14044e-10 
136 1.16374e-10 3.89192e-11 -1.58428e-10 
140 1.06405e-10 -1.52809e-11 -1.50725e-10 
144 6.734e-11 -6.35648e-11 -9.8457e-11 
148 2.82613e-11 5.58154e-11 -9.73653e-11 
152 7.02597e-11 5.03623e-11 -2.23888e-10 
156 3.33767e-11 -9.60338e-12 -1.06159e-10 
160 1.84508e-11 -7.47668e-11 -1.08687e-10 
164 -1.03926e-11 4.82496e-11 -5.8753e-11 
168 -1.41721e-11 1.54462e-11 -9.76103e-11 
172 -1.83979e-11 -2.16675e-11 -1.27806e-10 
176 9.73848e-13 -3.52104e-11 -5.31918e-11 
180 -1.40079e-11 2.95981e-11 -2.25198e-11 
184 -2.18437e-11 1.51925e-11 -4.20236e-11 
188 -2.54994e-11 -7.84564e-12 -4.30658e-11 
192 0 0 0 
ITEM: TIMESTEP
13000
ITEM: NUMBER OF SURFS
192
ITEM: BOX BOUNDS oo rr rr
0 0.0005
0 0.0005
0 0.0005
ITEM: SURFS id f_f_drag_blocks[1] f_f_drag_blocks[2] f_f_drag_blocks[3] 
1 1.11595e-10 5.31097e-11 7.33818e-11 
5 2.02423e-10 1.50049e-10 6.87905e-11 
9 2.16819e-10 1.64058e-10 -6.55389e-11 
13 9.5886e-11 6.95878e-11 -8.59427e-11 
17 2.71266e-10 4.53971e-11 1.81068e-10 
21 5.14321e-10 1.16067e-10 1.2295e-10 
25 5.4544e-10 1.08669e-10 -1.37023e-10 
29 3.08105e-10 9.14246e-11 -2.08323e-10 
33 2.26812e-10 -4.89359e-11 1.30824e-10 
37 4.78365e-10 -1.05362e-10 9.72007e-11 
41 6.02701e-10 -1.18043e-10 -1.20351e-10 
45 1.6067e-10 -5.08322e-11 -1.06609e-10 
49 1.79765e-10 -9.82833e-11 1.12371e-10 
53 2.10457e-10 -1.38481e-10 3.92376e-11 
57 1.65523e-10 -1.14428e-10 -4.34647e-11 
61 8.25873e-11 -5.74872e-11 -6.10426e-11 
65 9.36342e-11 1.36073e-10 9.03406e-11 
69 1.72407e-10 2.33472e-10 5.85563e-11 
73 1.65263e-10 2.03245e-10 -5.33152e-11 
77 1.47928e-10 1.57667e-10 -1.29051e-10 
81 7.58066e-12 3.87041e-11 3.45011e-11 
85 6.22451e-11 2.10448e-10 4.07425e-11 
89 5.93315e-11 2.01055e-10 -5.19432e-11 
93 3.64236e-11 1.31553e-10 -1.06241e-10 
97 -7.77012e-12 5.82351e-11 4.23606e-11 
101 -2.51591e-11 1.19904e-10 7.83151e-12 
105 -1.23705e-11 1.00051e-10 -2.02809e-11 
109 -4.77513e-12 4.61949e-11 -3.85901e-11 
113 -1.82042e-11 3.36337e-11 2.44779e-11 
117 -1.14177e-11 1.65797e-11 6.33101e-12 
121 -9.47765e-12 1.4693e-11 -1.12164e-11 
125 -7.69801e-12 1.46012e-11 -9.53445e-12 
129 4.8332e-11 4.14786e-11 6.71176e-11 
133 1.06862e-10 3.82424e-11 1.34931e-10 
137 1.44036e-10 -3.44252e-11 1.85343e-10 
141 8.25277e-11 -7.83883e-11 8.97422e-11 
145 1.52797e-11 5.45359e-11 7.36012e-11 
149 5.49944e-11 4.95546e-11 1.65882e-10 
153 6.0429e-11 -3.23967e-11 1.67766e-10 
157 6.47312e-11 -1.28247e-10 1.89312e-10 
161 -6.11715e-12 3.12328e-11 4.68651e-11 
165 -1.52485e-11 2.74321e-11 1.08519e-10 
169 -5.64376e-12 -2.37987e-11 6.83927e-11 
173 -1.17819e-11 -5.09199e-11 7.73697e-11 
177 -2.26227e-12 1.97897e-12 1.08928e-11 
181 -1.14312e-11 -1.67097e-12 1.85154e-11 
185 -4.47897e-12 9.00218e-13 1.03979e-11 
189 -5.39001e-12 -7.3345e-12 9.88329e-12 
2 1.5433e-10 1.14178e-10 8.90164e-11 
6 1.67448e-10 1.01918e-10 2.5619e-11 
10 3.61184e-10 2.3028e-10 -5.62839e-11 
14 4.91822e-11 2.24355e-11 -2.92675e-11 
18 2.14139e-10 4.29592e-11 1.42173e-10 
22 4.40134e-10 9.9433e-11 9.45221e-11 
26 3.63375e-10 5.14405e-11 -9.83509e-11 
30 1.9825e-10 3.36338e-11 -1.39959e-10 
34 1.7637e-10 -3.98605e-11 1.02257e-10 
38 4.84662e-10 -1.23625e-10 9.43284e-11 
42 5.01216e-10 -9.16352e-11 -1.34906e-10 
46 2.51646e-10 -5.22928e-11 -1.66883e-10 
50 1.4005e-10 -9.96572e-11 1.12234e-10 
54 2.37336e-10 -1.56026e-10 7.78097e-11 
58 2.13895e-10 -1.44275e-10 -7.02671e-11 
62 7.50414e-11 -4.87305e-11 -5.34391e-11 
66 1.06371e-10 1.09284e-10 7.64374e-11 
70 1.40966e-10 1.63932e-10 4.07355e-11 
74 4.8246e-11 7.36056e-11 -1.44288e-11 
78 6.46794e-11 9.91249e-11 -4.88966e-11 
82 4.95127e-11 1.15361e-10 7.70035e-11 
86 9.81242e-11 2.74202e-10 4.40818e-11 
90 5.25459e-11 1.78334e-10 -3.55785e-11 
94 3.56451e-11 1.14138e-10 -7.4143e-11 
98 -4.79258e-12 5.85101e-11 3.49069e-11 
102 -1.9055e-11 1.53322e-10 3.47243e-11 
106 -3.30596e-12 1.15354e-10 -1.45324e-11 
110 -8.83293e-12 5.78164e-11 -3.976e-11 
114 -1.45047e-12 7.63924e-12 3.37001e-12 
118 -3.12682e-11 4.08113e-11 8.64347e-12 
122 -1.9865e-11 2.84618e-11 -6.0761e-12 
126 -5.75407e-12 1.89486e-11 -1.86212e-11 
130 7.03141e-11 4.46234e-11 7.59218e-11 
134 1.18693e-10 5.12103e-11 1.50759e-10 
138 7.80261e-11 -2.96774e-11 1.14161e-10 
142 4.02502e-11 -4.28029e-11 7.93228e-11 
146 4.88453e-11 6.57043e-11 1.40117e-10 
150 9.66831e-11 6.56884e-11 2.75749e-10 
154 2.07256e-11 -2.65996e-11 1.43756e-10 
158 1.50803e-11 -7.43959e-11 1.34129e-10 
162 -2.50234e-12 4.79256e-11 5.87538e-11 
166 -2.25735e-11 2.84177e-11 1.44913e-10 
170 -1.42751e-11 -3.0969e-11 1.53153e-10 
174 -2.78816e-12 -1.75881e-11 1.76263e-11 
178 -1.03775e-11 2.66373e-11 1.87942e-11 
182 -2.52286e-11 6.31956e-12 4.34232e-11 
186 0 0 0 
190 2.18829e-12 2.17141e-12 4.5509e-12 
3 0 0 0 
7 -7.6155e-12 4.66023e-12 1.46836e-13 
11 -1.87718e-11 1.79897e-11 -3.95965e-12 
15 -1.73051e-12 -1.28058e-12 -2.52696e-12 
19 -1.19491e-11 2.65093e-12 1.36202e-11 
23 -1.67008e-11 1.03746e-12 -1.70651e-12 
27 -5.87948e-12 6.82636e-13 3.58393e-14 
31 -1.35628e-11 2.63025e-12 -1.4324e-11 
35 0 0 0 
39 -1.1433e-11 -7.96035e-12 2.93933e-12 
43 -1.28197e-11 -5.05225e-12 6.41902e-13 
47 -1.99502e-12 -1.89024e-12 -4.35917e-12 
51 0 0 0 
55 -2.8554e-12 -1.92148e-12 3.53701e-12 
59 -7.34072e-12 -5.36193e-12 7.38847e-13 
63 -1.43388e-11 -6.65724e-12 -9.2157e-12 
67 4.14048e-11 -7.29688e-11 3.8243e-11 
71 1.3787e-10 -1.79447e-10 4.57536e-11 
75 1.43142e-10 -1.99065e-10 -6.54365e-11 
79 1.25625e-10 -1.29312e-10 -1.07793e-10 
83 3.18597e-11 -1.23639e-10 7.63347e-11 
87 5.30544e-11 -1.40953e-10 3.60316e-11 
91 6.57083e-11 -2.82308e-10 -6.2396e-11 
95 4.4589e-11 -9.0657e-11 -5.85088e-11 
99 -1.75629e-11 -7.28728e-11 4.10278e-11 
103 -2.24332e-11 -1.25496e-10 2.76485e-11 
107 -2.04239e-11 -8.50614e-11 -1.44372e-11 
111 -1.70727e-11 -5.20342e-11 -3.28024e-11 
115 -5.1281e-12 -1.23363e-11 6.44638e-12 
119 -7.13209e-12 -8.90784e-12 7.07358e-12 
123 -8.50619e-12 -1.34795e-11 -2.77939e-12 
127 -4.46222e-12 -1.28091e-11 -6.64773e-12 
131 7.93779e-11 8.1689e-11 -1.39062e-10 
135 1.18192e-10 4.13024e-11 -1.58866e-10 
139 1.20303e-10 -3.49768e-11 -1.38272e-10 
143 6.70747e-11 -5.36196e-11 -4.80596e-11 
147 3.05316e-11 5.61924e-11 -9.29298e-11 
151 4.11479e-11 3.94833e-11 -1.5349e-10 
155 6.36375e-11 -5.80264e-11 -2.15366e-10 
159 5.17365e-11 -8.27686e-11 -1.08676e-10 
163 2.24339e-12 4.26382e-11 -4.91161e-11 
167 -1.04993e-11 1.50982e-11 -5.66434e-11 
171 -2.38191e-11 -2.61657e-11 -1.47444e-10 
175 -4.24226e-12 -1.92898e-11 -2.97103e-11 
179 -1.21219e-12 2.62547e-12 -3.87155e-12 
183 -3.30004e-12 2.48762e-12 -7.43879e-12 
187 -1.36401e-11 -4.39948e-12 -2.54699e-11 
191 -1.727e-11 -2.06334e-11 -2.8274e-11 
4 -2.29274e-12 1.66226e-12 1.89591e-12 
8 -1.00421e-11 1.88493e-12 3.44075e-12 
12 0 0 0 
16 -9.19478e-12 3.13072e-12 -3.09578e-12 
20 -4.59347e-12 2.90411e-13 4.18055e-12 
24 -1.10938e-11 3.2522e-12 3.95421e-12 
28 0 0 0 
32 -5.07018e-12 5.64274e-12 -5.88087e-12 
36 -4.15872e-12 1.51746e-13 5.52412e-12 
40 -1.14285e-11 1.98158e-12 1.36886e-12 
44 -7.4776e-12 -7.49991e-12 -7.97661e-12 
48 -2.62051e-11 -1.03345e-11 -2.403e-11 
52 -7.03787e-12 -1.40611e-11 1.27732e-11 
56 -2.67463e-11 -1.95668e-11 6.82527e-12 
60 0 0 0 
64 0 0 0 
68 1.21862e-10 -1.1601e-10 7.31392e-11 
72 1.83353e-10 -2.30896e-10 3.96267e-11 
76 9.73321e-11 -1.3997e-10 -2.89534e-11 
80 4.32182e-11 -7.38724e-11 -4.10187e-11 
84 3.62202e-11 -1.31166e-10 7.9337e-11 
88 7.66272e-11 -2.10215e-10 5.56333e-11 
92 3.56795e-11 -1.72809e-10 -1.95882e-11 
96 2.90984e-11 -8.94655e-11 -3.52009e-11 
100 -5.87044e-12 -3.30159e-11 2.40503e-11 
104 -1.08614e-11 -8.29126e-11 1.97089e-11 
108 -1.21408e-11 -1.22716e-10 -2.39398e-11 
112 -5.18576e-12 -5.11971e-11 -3.45913e-11 
116 -1.45713e-11 -1.82259e-11 1.40313e-11 
120 -2.07066e-11 -3.74783e-11 1.05207e-11 
124 -2.43491e-11 -4.50379e-11 -1.22483e-11 
128 -3.53828e-12 -1.35637e-11 -1.60037e-11 
132 6.56072e-11 5.77669e-11 -9.14208e-11 
136 1.28588e-10 1.55963e-11 -1.69496e-10 
140 1.3971e-10 -2.81582e-11 -1.8835e-10 
144 5.78261e-11 -6.20333e-11 -1.03392e-10 
148 3.01464e-11 5.39303e-11 -9.59769e-11 
152 8.86258e-11 7.54444e-11 -2.87762e-10 
156 5.34266e-11 -5.47032e-11 -1.74954e-10 
160 1.96359e-11 -4.97814e-11 -6.46465e-11 
164 -1.47486e-12 6.22295e-11 -9.5365e-11 
168 -1.67986e-11 8.91679e-13 -7.42328e-11 
172 -8.0437e-12 -1.36532e-11 -9.08805e-11 
176 -1.06901e-11 -3.84807e-11 -4.81054e-11 
180 -9.76055e-12 2.35731e-11 -3.35854e-11 
184 -6.66845e-12 3.5039e-12 -1.28073e-11 
188 -8.912e-12 -1.2116e-11 -1.98328e-11 
192 -1.10607e-11 -2.59263e-11 -3.05805e-11 
ITEM: TIMESTEP
14000
ITEM: NUMBER OF SURFS
192
ITEM: BOX BOUNDS oo rr rr
0 0.0005
0 0.0005
0 0.0005
ITEM: SURFS id f_f_drag_blocks[1] f_f_drag_blocks[2] f_f_drag_blocks[3] 
1 1.26148e-10 6.93527e-11 9.4954e-11 
5 3.40967e-10 1.98829e-10 9.26374e-11 
9 2.08524e-10 1.48841e-10 -4.28706e-11 
13 1.20849e-10 9.6322e-11 -8.28612e-11 
17 1.88821e-10 4.41853e-11 1.29076e-10 
21 5.63839e-10 1.22611e-10 1.29049e-10 
25 6.21001e-10 1.60795e-10 -1.41666e-10 
29 2.99297e-10 6.72521e-11 -2.0433e-10 
33 2.70884e-10 -4.00812e-11 1.4904e-10 
37 5.47883e-10 -1.1716e-10 1.1805e-10 
41 5.00977e-10 -1.24021e-10 -9.18e-11 
45 3.30352e-10 -6.98444e-11 -1.81009e-10 
49 1.60582e-10 -9.4663e-11 9.41471e-11 
53 1.58429e-10 -1.03188e-10 3.16289e-11 
57 1.63858e-10 -1.11968e-10 -2.9239e-11 
61 1.27664e-10 -9.93812e-11 -7.28789e-11 
65 4.99985e-11 7.36921e-11 5.03614e-11 
69 1.2353e-10 1.64286e-10 3.75363e-11 
73 1.72674e-10 2.29077e-10 -4.95233e-11 
77 1.06758e-10 1.17738e-10 -8.79014e-11 
81 4.11175e-11 1.32275e-10 9.86539e-11 
85 8.32806e-11 2.47004e-10 5.33268e-11 
89 7.1272e-11 2.07112e-10 -5.78725e-11 
93 4.39979e-11 1.25813e-10 -8.02983e-11 
97 -5.91161e-12 1.82115e-11 6.4042e-12 
101 -7.12281e-12 6.28236e-11 2.66066e-11 
105 -2.2477e-11 1.52142e-10 -2.34252e-11 
109 -4.43224e-12 1.90546e-11 -1.49482e-11 
113 -1.89793e-11 2.92903e-11 9.07976e-12 
117 -4.37132e-12 7.34977e-12 5.55269e-12 
121 -1.77599e-11 2.00686e-11 -2.65443e-12 
125 -1.03253e-11 1.55392e-11 -1.3698e-11 
129 7.17365e-11 7.92045e-11 1.05993e-10 
133 8.72532e-11 2.30468e-11 1.09268e-10 
137 1.24544e-10 -2.37986e-11 1.48212e-10 
141 9.79727e-11 -7.62336e-11 9.50472e-11 
145 1.43075e-11 3.91435e-11 6.43103e-11 
149 6.7641e-11 6.05425e-11 2.19277e-10 
153 2.78423e-11 -4.00579e-11 1.49652e-10 
157 2.04433e-11 -6.51483e-11 8.41162e-11 
161 -1.27837e-12 1.04365e-11 2.26617e-11 
165 -2.94803e-11 3.44859e-11 1.34184e-10 
169 -2.24883e-11 -1.7189e-11 6.91004e-11 
173 -1.13265e-11 -4.30401e-11 8.31938e-11 
177 -8.00175e-12 3.28414e-12 1.67052e-11 
181 -2.10529e-11 2.46719e-12 3.40795e-11 
185 -1.56078e-11 -3.48349e-12 3.1335e-11 
189 -5.81922e-12 -1.37899e-11 6.18587e-12 
2 1.73335e-10 1.24167e-10 9.69537e-11 
6 2.27785e-10 1.49158e-10 5.09289e-11 
10 2.27429e-10 1.44624e-10 -4.8908e-11 
14 9.51389e-11 5.31971e-11 -4.93375e-11 
18 2.5517e-10 4.89909e-11 1.6736e-10 
22 5.49816e-10 1.43757e-10 1.17657e-10 
26 4.42714e-10 1.00261e-10 -8.72294e-11 
30 1.15831e-10 1.52069e-11 -6.63476e-11 
34 2.38558e-10 -5.52927e-11 1.78288e-10 
38 5.21605e-10 -1.26663e-10 1.27683e-10 
42 5.07206e-10 -8.13771e-11 -1.05158e-10 
46 2.62236e-10 -6.45238e-11 -1.94587e-10 
50 1.54424e-10 -1.3103e-10 1.30505e-10 
54 2.50744e-10 -1.64362e-10 6.51709e-11 
58 2.16802e-10 -1.42535e-10 -3.49245e-11 
62 1.95467e-10 -1.0025e-10 -1.11274e-10 
66 7.53892e-11 1.01081e-10 6.053e-11 
70 1.28959e-10 1.71846e-10 3.51493e-11 
74 8.43245e-11 1.39314e-10 -2.67233e-11 
78 4.42427e-11 8.58087e-11 -4.40562e-11 
82 2.91771e-11 9.02122e-11 4.17679e-11 
86 8.61083e-11 2.31201e-10 5.39213e-11 
90 6.05956e-11 1.92866e-10 -3.36466e-11 
94 3.63652e-11 1.35999e-10 -8.32547e-11 
98 -1.01469e-11 4.48241e-11 3.60419e-11 
102 -1.44798e-11 1.10208e-10 2.30948e-11 
106 -1.4506e-11 1.02516e-10 -1.81973e-11 
110 -9.17604e-12 5.84448e-11 -4.88898e-11 
114 0 0 0 
118 -1.56607e-11 2.73822e-11 8.32213e-12 
122 -1.37754e-11 2.61441e-11 -5.16391e-12 
126 0 0 0 
130 7.78035e-11 4.93721e-11 9.08548e-11 
134 1.35411e-10 3.50622e-11 1.63164e-10 
138 1.09009e-10 -3.0832e-11 1.68627e-10 
142 8.59745e-11 -6.31182e-11 1.17349e-10 
146 2.41733e-11 5.4461e-11 8.06846e-11 
150 4.17872e-11 4.68511e-11 1.50912e-10 
154 4.90981e-11 -3.46718e-11 1.73599e-10 
158 2.86775e-11 -7.28523e-11 1.32135e-10 
162 -5.02495e-12 3.01251e-11 4.04502e-11 
166 -2.46484e-11 3.18777e-11 1.05438e-10 
170 -1.72889e-11 -3.30668e-11 1.27887e-10 
174 1.90038e-12 -3.33206e-11 4.36209e-11 
178 -5.36244e-12 1.71106e-11 1.44896e-11 
182 -1.62482e-11 -9.39862e-13 2.82657e-11 
186 -2.90742e-11 -2.05488e-11 4.44378e-11 
190 -1.61218e-11 -1.96567e-11 2.04724e-11 
3 -8.80137e-12 4.53005e-12 1.10721e-11 
7 -2.6192e-11 2.63549e-11 8.11715e-12 
11 -1.40839e-11 1.04258e-11 -6.81002e-12 