ITEM: TIMESTEP
5000
ITEM: NUMBER OF SURFS
192
ITEM: BOX BOUNDS oo rr rr
0 0.0005
0 0.0005
0 0.0005
ITEM: SURFS id f_f_drag_blocks[1] f_f_drag_blocks[2] f_f_drag_blocks[3] 
1 0 0 0 
5 0 0 0 
9 0 0 0 
13 0 0 0 
17 0 0 0 
21 0 0 0 
25 0 0 0 
29 0 0 0 
33 0 0 0 
37 0 0 0 
41 0 0 0 
45 0 0 0 
49 0 0 0 
53 0 0 0 
57 0 0 0 
61 0 0 0 
65 0 0 0 
69 0 0 0 
73 0 0 0 
77 0 0 0 
81 0 0 0 
85 0 0 0 
89 0 0 0 
93 0 0 0 
97 0 0 0 
101 0 0 0 
105 0 0 0 
109 0 0 0 
113 0 0 0 
117 0 0 0 
121 0 0 0 
125 0 0 0 
129 0 0 0 
133 0 0 0 
137 0 0 0 
141 0 0 0 
145 0 0 0 
149 0 0 0 
153 0 0 0 
157 0 0 0 
161 0 0 0 
165 0 0 0 
169 0 0 0 
173 0 0 0 
177 0 0 0 
181 0 0 0 
185 0 0 0 
189 0 0 0 
2 0 0 0 
6 0 0 0 
10 0 0 0 
14 0 0 0 
18 0 0 0 
22 0 0 0 
26 0 0 0 
30 0 0 0 
34 0 0 0 
38 0 0 0 
42 0 0 0 
46 0 0 0 
50 0 0 0 
54 0 0 0 
58 0 0 0 
62 0 0 0 
66 0 0 0 
70 0 0 0 
74 0 0 0 
78 0 0 0 
82 0 0 0 
86 0 0 0 
90 0 0 0 
94 0 0 0 
98 0 0 0 
102 0 0 0 
106 0 0 0 
110 0 0 0 
114 0 0 0 
118 0 0 0 
122 0 0 0 
126 0 0 0 
130 0 0 0 
134 0 0 0 
138 0 0 0 
142 0 0 0 
146 0 0 0 
150 0 0 0 
154 0 0 0 
158 0 0 0 
162 0 0 0 
166 0 0 0 
170 0 0 0 
174 0 0 0 
178 0 0 0 
182 0 0 0 
186 0 0 0 
190 0 0 0 
3 0 0 0 
7 0 0 0 
11 0 0 0 
15 0 0 0 
19 0 0 0 
23 0 0 0 
27 0 0 0 
31 0 0 0 
35 0 0 0 
39 0 0 0 
43 0 0 0 
47 0 0 0 
51 0 0 0 
55 0 0 0 
59 0 0 0 
63 0 0 0 
67 0 0 0 
71 0 0 0 
75 0 0 0 
79 0 0 0 
83 0 0 0 
87 0 0 0 
91 0 0 0 
95 0 0 0 
99 0 0 0 
103 0 0 0 
107 0 0 0 
111 0 0 0 
115 0 0 0 
119 0 0 0 
123 0 0 0 
127 0 0 0 
131 0 0 0 
135 0 0 0 
139 0 0 0 
143 0 0 0 
147 0 0 0 
151 0 0 0 
155 0 0 0 
159 0 0 0 
163 0 0 0 
167 0 0 0 
171 0 0 0 
175 0 0 0 
179 0 0 0 
183 0 0 0 
187 0 0 0 
191 0 0 0 
4 0 0 0 
8 0 0 0 
12 0 0 0 
16 0 0 0 
20 0 0 0 
24 0 0 0 
28 0 0 0 
32 0 0 0 
36 0 0 0 
40 0 0 0 
44 0 0 0 
48 0 0 0 
52 0 0 0 
56 0 0 0 
60 0 0 0 
64 0 0 0 
68 0 0 0 
72 0 0 0 
76 0 0 0 
80 0 0 0 
84 0 0 0 
88 0 0 0 
92 0 0 0 
96 0 0 0 
100 0 0 0 
104 0 0 0 
108 0 0 0 
112 0 0 0 
116 0 0 0 
120 0 0 0 
124 0 0 0 
128 0 0 0 
132 0 0 0 
136 0 0 0 
140 0 0 0 
144 0 0 0 
148 0 0 0 
152 0 0 0 
156 0 0 0 
160 0 0 0 
164 0 0 0 
168 0 0 0 
172 0 0 0 
176 0 0 0 
180 0 0 0 
184 0 0 0 
188 0 0 0 
192 0 0 0 
ITEM: TIMESTEP
6000
ITEM: NUMBER OF SURFS
192
ITEM: BOX BOUNDS oo rr rr
0 0.0005
0 0.0005
0 0.0005
ITEM: SURFS id f_f_drag_blocks[1] f_f_drag_blocks[2] f_f_drag_blocks[3] 
1 1.08409e-10 6.25857e-11 7.28051e-11 
5 3.55851e-10 2.05076e-10 8.99632e-11 
9 2.52329e-10 1.71574e-10 -6.0127e-11 
13 1.28277e-10 1.13408e-10 -1.08222e-10 
17 2.20784e-10 4.04504e-11 1.46622e-10 
21 5.31568e-10 1.06112e-10 1.32015e-10 
25 5.88269e-10 1.1106e-10 -1.51817e-10 
29 2.86173e-10 6.08133e-11 -2.05433e-10 
33 1.87405e-10 -3.28714e-11 1.29976e-10 
37 5.746e-10 -1.21356e-10 1.07386e-10 
41 5.13768e-10 -1.11237e-10 -9.74766e-11 
45 2.59073e-10 -6.54578e-11 -1.65668e-10 
49 1.42695e-10 -8.05728e-11 8.06603e-11 
53 2.67075e-10 -1.6186e-10 5.70166e-11 
57 2.24505e-10 -1.51312e-10 -5.06026e-11 
61 1.79239e-10 -1.24847e-10 -1.0685e-10 
65 5.14392e-11 6.35938e-11 4.69532e-11 
69 9.76492e-11 1.48396e-10 4.86967e-11 
73 1.26953e-10 1.61761e-10 -5.09744e-11 
77 8.64471e-11 9.93119e-11 -7.87989e-11 
81 1.63593e-11 6.52965e-11 4.36341e-11 
85 6.83708e-11 1.76512e-10 5.80868e-11 
89 6.56737e-11 2.44843e-10 -5.21536e-11 
93 5.03879e-11 1.48026e-10 -1.02414e-10 
97 -3.10737e-12 5.20239e-11 3.7663e-11 
101 -1.20231e-11 1.10405e-10 1.86455e-11 
105 -1.13348e-11 6.27235e-11 -2.24538e-11 
109 -6.62439e-12 6.95479e-11 -4.77982e-11 
113 -6.97119e-12 2.01736e-11 1.27819e-11 
117 -9.86807e-12 1.53629e-11 2.99376e-12 
121 -3.0996e-12 5.11328e-12 3.49985e-13 
125 -1.12758e-11 1.10243e-11 -6.64241e-12 
129 6.38352e-11 6.00146e-11 8.15139e-11 
133 1.20988e-10 4.17063e-11 1.74422e-10 
137 1.35431e-10 -4.90716e-11 1.71026e-10 
141 1.08022e-10 -7.71839e-11 1.03976e-10 
145 3.41256e-11 5.82517e-11 8.98496e-11 
149 5.73451e-11 4.34585e-11 1.87064e-10 
153 7.03973e-11 -6.48175e-11 2.36442e-10 
157 3.60284e-11 -6.42416e-11 9.89347e-11 
161 -1.23641e-11 2.96823e-11 3.98427e-11 
165 -6.7262e-12 1.42857e-11 8.53925e-11 
169 -1.71518e-11 -2.24784e-11 1.02068e-10 
173 -3.50976e-12 -2.31625e-11 3.29385e-11 
177 -5.96563e-12 7.30793e-12 1.2927e-11 
181 -1.0649e-11 5.11767e-12 1.84946e-11 
185 -9.91306e-12 -4.20493e-12 1.66167e-11 
189 -5.8234e-12 -5.88645e-12 1.0879e-11 
2 1.18718e-10 7.49356e-11 7.11344e-11 
6 1.8888e-10 1.27508e-10 4.08483e-11 
10 1.55129e-10 8.63169e-11 -3.2893e-11 
14 1.40065e-10 7.08013e-11 -7.98225e-11 
18 2.37931e-10 4.57226e-11 1.33687e-10 
22 5.3096e-10 1.00877e-10 1.1277e-10 
26 4.59775e-10 7.38077e-11 -9.16705e-11 
30 2.29769e-10 3.74349e-11 -1.44745e-10 
34 2.1585e-10 -5.70954e-11 1.49736e-10 
38 5.11682e-10 -1.0925e-10 1.2644e-10 
42 4.77527e-10 -1.02085e-10 -1.19093e-10 
46 2.17174e-10 -2.66682e-11 -1.47192e-10 
50 1.56428e-10 -1.24565e-10 1.33313e-10 
54 2.68971e-10 -1.93244e-10 7.41679e-11 
58 2.24033e-10 -1.21743e-10 -4.95629e-11 
62 1.06003e-10 -6.43264e-11 -7.75629e-11 
66 8.50118e-11 8.84543e-11 6.51532e-11 
70 1.08409e-10 1.37407e-10 2.93859e-11 
74 1.04762e-10 1.38653e-10 -3.73211e-11 
78 6.43844e-11 9.32239e-11 -5.2586e-11 
82 4.80408e-11 1.53942e-10 1.09958e-10 
86 4.85841e-11 1.44308e-10 2.79311e-11 
90 5.46905e-11 2.03591e-10 -3.89963e-11 
94 2.21456e-11 6.86504e-11 -4.27908e-11 
98 -1.58389e-11 9.88236e-11 6.97435e-11 
102 -2.93588e-11 1.37164e-10 3.60364e-11 
106 -8.27969e-12 6.0065e-11 -1.40395e-11 
110 -1.1246e-12 2.69991e-11 -1.76206e-11 
114 -1.24284e-11 1.76637e-11 1.52334e-11 
118 -9.43637e-12 1.99403e-11 3.00779e-12 
122 -1.63698e-11 2.78744e-11 -3.21841e-12 
126 -1.80941e-12 4.01783e-12 -3.66376e-12 
130 9.40039e-11 5.21732e-11 1.029e-10 
134 1.76558e-10 3.71604e-11 2.33925e-10 
138 8.741e-11 -2.38017e-11 1.30237e-10 
142 3.37661e-11 -3.19624e-11 5.34161e-11 
146 4.11883e-11 7.03507e-11 1.07e-10 
150 5.50631e-11 3.01287e-11 1.93878e-10 
154 6.61613e-11 -5.84392e-11 2.30906e-10 
158 2.82377e-11 -5.30691e-11 8.04373e-11 
162 -3.40513e-12 3.70334e-11 4.35727e-11 
166 -1.08187e-11 2.25514e-11 1.04811e-10 
170 -1.88558e-11 -2.5554e-11 1.60896e-10 
174 -8.91922e-13 -2.6379e-11 3.01678e-11 
178 -9.8235e-12 1.45731e-11 1.66524e-11 
182 -1.09388e-11 5.0589e-12 2.53912e-11 
186 -1.28703e-11 -2.93862e-12 2.42794e-11 
190 -5.34469e-12 -1.57549e-11 1.70465e-11 
3 -4.76955e-12 3.76658e-12 4.96531e-12 
7 -8.72956e-12 1.14157e-11 3.89711e-12 
11 -1.62781e-11 1.3058e-11 -4.20549e-12 
15 -2.91769e-11 1.82511e-11 -2.06819e-11 
19 -7.36434e-12 -1.72119e-12 4.82546e-12 
23 -1.98593e-11 4.23765e-12 6.8332e-12 
27 -7.21427e-12 2.07631e-12 -1.90858e-12 
31 -9.32861e-12 6.03839e-12 -5.58657e-12 
35 -9.87433e-12 -3.84477e-12 8.82192e-12 
39 -1.23386e-11 7.21322e-13 5.30244e-13 
43 -3.08074e-12 1.12242e-12 1.19404e-12 
47 0 0 0 
51 -6.50607e-12 -2.11368e-12 8.02096e-12 
55 -7.98752e-12 -1.08336e-11 1.79115e-12 
59 -1.07863e-11 -8.80538e-12 1.39193e-12 
63 -4.95651e-12 -4.96613e-12 -3.12199e-12 
67 8.08173e-11 -1.18702e-10 9.37948e-11 
71 1.25142e-10 -1.73655e-10 4.27091e-11 
75 1.602e-10 -1.91436e-10 -4.97812e-11 
79 7.01403e-11 -7.90446e-11 -6.05631e-11 
83 1.80056e-11 -7.83619e-11 5.56001e-11 
87 4.99013e-11 -2.04813e-10 5.83871e-11 
91 8.06899e-11 -2.61657e-10 -6.14745e-11 
95 3.08982e-11 -1.08877e-10 -6.85602e-11 
99 -2.15616e-12 -2.65475e-11 2.22581e-11 
103 -9.64929e-12 -8.51849e-11 1.84093e-11 
107 -2.74308e-11 -1.46221e-10 -2.83174e-11 
111 -1.70649e-11 -7.34866e-11 -4.60033e-11 
115 -7.13045e-12 -1.17862e-11 8.45284e-12 
119 -5.44148e-12 -1.44276e-11 -8.69664e-14 
123 -1.1197e-11 -2.29304e-11 -5.9688e-12 
127 -1.00684e-11 -1.35198e-11 -9.23968e-12 
131 8.52676e-11 8.917e-11 -9.55657e-11 
135 1.33479e-10 5.21735e-11 -1.86115e-10 
139 1.88602e-10 -5.5217e-11 -2.40502e-10 
143 9.87647e-11 -9.10069e-11 -1.01828e-10 
147 1.26724e-11 3.88234e-11 -5.47733e-11 
151 6.82605e-11 6.87156e-11 -2.44346e-10 
155 7.63495e-11 -4.55222e-11 -2.28062e-10 
159 2.65111e-11 -7.13387e-11 -8.83987e-11 
163 -2.71858e-12 3.86556e-11 -4.39451e-11 
167 -2.12712e-11 2.59221e-11 -1.08555e-10 
171 -4.19119e-12 -1.44871e-11 -7.41449e-11 
175 -1.48924e-11 -4.16193e-11 -6.4314e-11 
179 -9.19845e-12 1.14538e-11 -2.066e-11 
183 -2.60335e-12 -1.25325e-12 -5.63054e-12 
187 -1.73357e-11 -5.2993e-12 -3.66212e-11 
191 -5.75102e-12 -3.0441e-12 -1.14847e-11 
4 -1.72057e-12 1.15277e-12 4.29213e-12 
8 -1.53674e-11 1.17654e-11 1.6994e-12 
12 -5.12495e-12 9.07717e-12 -1.65416e-12 
16 -1.24251e-11 6.8191e-12 -8.50216e-12 
20 -9.65414e-12 2.94132e-12 6.94825e-12 
24 -2.1011e-11 4.22038e-12 6.34805e-12 
28 -2.74373e-12 1.14749e-12 -2.44985e-12 
32 -5.64661e-12 1.87532e-12 -5.59333e-12 
36 -2.11196e-12 -1.12683e-12 3.92361e-12 
40 -8.95248e-12 -2.1103e-12 5.20277e-12 
44 -7.89464e-12 -1.87797e-13 -3.53592e-12 
48 -1.02752e-11 -4.06375e-12 -5.70712e-12 
52 -8.5218e-12 -6.20864e-12 8.69782e-12 
56 -9.56271e-12 -6.15493e-12 5.51724e-12 
60 -5.64736e-12 -5.05157e-12 -8.67988e-13 
64 -9.49061e-12 -1.11564e-11 -1.16673e-11 
68 6.31921e-11 -6.71898e-11 4.27259e-11 
72 1.25853e-10 -1.6208e-10 3.13492e-11 
76 9.82947e-11 -1.56337e-10 -3.22773e-11 
80 5.79614e-11 -9.02658e-11 -4.68082e-11 
84 3.5166e-11 -1.10264e-10 6.48216e-11 
88 6.47468e-11 -2.26026e-10 3.63837e-11 
92 5.73323e-11 -1.75215e-10 -3.95296e-11 
96 3.62875e-11 -8.88991e-11 -6.07645e-11 
100 -1.02672e-11 -4.97071e-11 3.26223e-11 
104 -2.31086e-11 -1.23326e-10 2.34022e-11 
108 -1.39116e-11 -1.07839e-10 -2.83939e-11 
112 -9.05039e-12 -5.2576e-11 -4.51895e-11 
116 -9.42936e-12 -1.83259e-11 9.98815e-12 
120 -1.15775e-11 -2.48513e-11 1.24989e-11 
124 -1.77593e-11 -4.0434e-11 -1.4673e-11 
128 -6.48988e-12 -1.15924e-11 -1.2906e-11 
132 1.0529e-10 7.1788e-11 -1.19855e-10 
136 1.32179e-10 3.09494e-11 -1.70885e-10 
140 1.12071e-10 -2.02571e-11 -1.41279e-10 
144 3.61103e-11 -2.80855e-11 -6.63295e-11 
148 4.57805e-11 8.61074e-11 -1.21189e-10 
152 7.57772e-11 4.76669e-11 -2.35374e-10 
156 4.86633e-11 -3.869e-11 -1.92654e-10 
160 2.02182e-11 -4.18634e-11 -7.055e-11 
164 -6.66732e-12 1.58124e-11 -2.30361e-11 
168 -6.86472e-12 1.34473e-11 -7.97257e-11 
172 -1.02632e-11 -2.3557e-11 -7.50722e-11 
176 -4.65694e-12 -2.6593e-11 -4.17142e-11 
180 -1.00007e-11 9.87726e-12 -1.56842e-11 
184 -1.68993e-11 5.22663e-12 -2.99353e-11 
188 -1.88264e-11 -6.38e-12 -2.64675e-11 
192 -9.77453e-12 -2.10502e-11 -1.80096e-11 
ITEM: TIMESTEP
7000
ITEM: NUMBER OF SURFS
192
ITEM: BOX BOUNDS oo rr rr
0 0.0005
0 0.0005
0 0.0005
ITEM: SURFS id f_f_drag_blocks[1] f_f_drag_blocks[2] f_f_drag_blocks[3] 
1 1.02888e-10 7.0392e-11 7.28176e-11 
5 2.09011e-10 1.29934e-10 5.84099e-11 
9 2.99254e-10 2.07377e-10 -8.15151e-11 
13 1.14212e-10 9.59365e-11 -9.60156e-11 
17 2.47623e-10 5.31682e-11 1.7841e-10 
21 4.52235e-10 8.4415e-11 1.04457e-10 
25 5.5379e-10 1.42311e-10 -1.23334e-10 
29 3.00515e-10 6.72292e-11 -2.02276e-10 
33 1.86843e-10 -2.517e-11 1.03058e-10 
37 4.80093e-10 -8.40146e-11 8.89159e-11 
41 5.67997e-10 -1.29149e-10 -1.09177e-10 
45 2.99718e-10 -7.73587e-11 -1.83485e-10 
49 1.32442e-10 -5.7735e-11 5.55404e-11 
53 2.17997e-10 -1.28123e-10 3.5838e-11 
57 2.32077e-10 -1.63064e-10 -4.23411e-11 
61 1.27844e-10 -9.59669e-11 -7.69087e-11 
65 9.2064e-11 1.11582e-10 8.83442e-11 
69 1.56066e-10 2.1272e-10 5.26846e-11 
73 1.41693e-10 1.66895e-10 -4.29149e-11 
77 8.16369e-11 7.92362e-11 -6.7344e-11 
81 1.93112e-11 1.06798e-10 6.94295e-11 
85 7.0498e-11 2.19047e-10 5.83901e-11 
89 4.80218e-11 2.12175e-10 -6.28996e-11 
93 3.04764e-11 7.63346e-11 -6.08616e-11 
97 -9.89453e-12 7.40321e-11 5.60028e-11 
101 -6.20297e-12 7.30172e-11 1.19044e-11 
105 -8.56722e-12 9.07721e-11 -1.62879e-11 
109 -1.67941e-11 7.6674e-11 -5.56633e-11 
113 -1.95191e-11 2.07624e-11 1.7034e-11 
117 -9.00622e-12 1.58312e-11 2.22772e-12 
121 -1.21866e-11 1.50617e-11 -2.67947e-13 
125 -9.51579e-12 1.50548e-11 -6.24728e-12 
129 5.4969e-11 5.36418e-11 7.36213e-11 
133 1.31067e-10 5.02478e-11 1.83583e-10 
137 1.34744e-10 -3.61044e-11 1.75508e-10 
141 8.95764e-11 -6.64271e-11 9.31446e-11 
145 2.70945e-11 7.43811e-11 1.06985e-10 
149 6.54431e-11 4.37231e-11 2.09603e-10 
153 7.05325e-11 -6.5223e-11 2.27767e-10 
157 3.35286e-11 -5.76865e-11 7.54224e-11 
161 -4.07373e-12 1.97397e-11 2.50509e-11 
165 -7.28954e-12 1.24188e-11 9.26719e-11 
169 -1.66678e-11 -1.57745e-11 7.74045e-11 
173 -1.24151e-11 -4.73785e-11 7.92639e-11 
177 -1.0407e-11 9.07893e-12 2.05579e-11 
181 -1.04451e-11 3.15382e-12 1.43577e-11 
185 -2.3748e-11 -1.15252e-11 3.32346e-11 
189 -5.10732e-12 -3.11955e-12 7.62426e-12 
2 8.68022e-11 5.96577e-11 5.66373e-11 
6 1.8947e-10 1.3184e-10 4.14246e-11 
10 1.77985e-10 9.48086e-11 -3.306e-11 
14 1.14885e-10 7.53159e-11 -7.85622e-11 
18 2.57038e-10 7.02753e-11 1.66362e-10 
22 6.1241e-10 1.24669e-10 1.31946e-10 
26 5.01199e-10 9.38099e-11 -1.10163e-10 
30 2.18171e-10 3.84432e-11 -1.20385e-10 
34 2.40346e-10 -5.80454e-11 1.60358e-10 
38 5.80865e-10 -1.13414e-10 1.46732e-10 
42 4.93589e-10 -9.22764e-11 -1.15225e-10 
46 1.89975e-10 -3.16771e-11 -1.19987e-10 
50 1.37231e-10 -1.03336e-10 1.1052e-10 
54 2.30131e-10 -1.59794e-10 5.16013e-11 
58 3.29887e-10 -2.12296e-10 -7.34549e-11 
62 9.99792e-11 -5.74212e-11 -7.445e-11 
66 1.0196e-10 1.07078e-10 7.92058e-11 
70 1.35756e-10 1.76483e-10 3.16679e-11 
74 6.24974e-11 8.6287e-11 -2.65264e-11 
78 6.03038e-11 8.99214e-11 -4.91675e-11 
82 3.86963e-11 1.11778e-10 6.98611e-11 
86 7.0445e-11 1.9166e-10 3.83718e-11 
90 5.27481e-11 2.13794e-10 -3.86314e-11 
94 1.77656e-11 8.92231e-11 -4.41953e-11 
98 -1.34346e-11 5.29925e-11 3.81358e-11 
102 -1.02792e-11 1.20596e-10 3.4798e-11 
106 -1.83526e-11 9.36286e-11 -2.26598e-11 
110 -3.78257e-12 2.09651e-11 -1.40684e-11 
114 -7.83217e-12 1.39763e-11 9.85825e-12 
118 -1.83841e-11 3.13827e-11 1.21875e-11 
122 -1.32683e-11 2.20505e-11 -2.37899e-12 
126 -7.73136e-12 8.65303e-12 -3.61988e-12 
130 1.04931e-10 8.06635e-11 1.24336e-10 
134 1.21551e-10 4.12709e-11 1.64757e-10 
138 6.85098e-11 -8.3276e-12 9.30369e-11 
142 4.03818e-11 -3.76933e-11 7.26321e-11 
146 5.08661e-11 8.33373e-11 1.38556e-10 
150 5.3029e-11 4.1691e-11 1.85341e-10 
154 4.21098e-11 -2.21567e-11 1.377e-10 
158 1.82117e-11 -5.20292e-11 8.14497e-11 
162 -7.24811e-12 4.30409e-11 6.55278e-11 
166 -9.55572e-12 1.6495e-11 8.00444e-11 
170 -2.26701e-11 -2.91663e-11 1.02958e-10 
174 -9.57297e-12 -3.09712e-11 5.34557e-11 
178 -1.3009e-11 1.852e-11 1.39081e-11 
182 -9.94729e-12 5.82622e-12 2.29982e-11 
186 -1.1753e-11 -3.61191e-12 2.05379e-11 
190 -6.07121e-12 -1.068e-11 1.89192e-11 
3 -7.67096e-12 4.75279e-12 3.97495e-12 
7 -7.77862e-12 1.29689e-11 4.76393e-12 
11 -6.94946e-12 7.93983e-12 -3.58931e-12 
15 -1.45923e-11 5.5517e-12 -6.87042e-12 
19 -1.69576e-11 2.35738e-12 1.31674e-11 
23 -1.29276e-11 1.13516e-13 6.46927e-12 
27 -1.49866e-11 2.28685e-12 -7.48765e-12 
31 -7.6183e-12 1.51527e-12 -5.18799e-12 
35 -6.18355e-12 -6.27828e-13 2.34968e-12 
39 -1.06989e-11 -4.50886e-12 3.29435e-12 
43 -7.64154e-12 -1.45428e-13 -9.1566e-13 
47 -3.08878e-12 1.66833e-13 1.32834e-13 
51 -4.08958e-12 -3.51162e-12 5.00516e-12 
55 0 0 0 
59 -4.92534e-12 -6.41591e-12 3.27822e-13 
63 -5.17694e-12 -3.43265e-12 -5.30252e-12 
67 5.64883e-11 -8.8605e-11 5.94883e-11 
71 1.25376e-10 -1.75552e-10 3.78818e-11 
75 1.66606e-10 -2.14429e-10 -5.80097e-11 
79 6.36109e-11 -7.15728e-11 -5.47135e-11 
83 2.13966e-11 -6.73567e-11 4.73683e-11 
87 3.8096e-11 -1.53539e-10 4.23687e-11 
91 8.40992e-11 -3.08728e-10 -6.24119e-11 
95 6.093e-11 -1.58382e-10 -9.96271e-11 
99 -3.30704e-12 -5.14607e-11 3.4494e-11 
103 -8.78583e-12 -6.59891e-11 1.9907e-11 
107 -1.35292e-11 -6.93979e-11 -1.6983e-11 
111 -9.16097e-12 -3.98731e-11 -2.61558e-11 
115 -3.68323e-12 -1.21561e-11 5.89249e-12 
119 -7.93448e-12 -1.22105e-11 9.78677e-13 
123 -4.10717e-12 -8.20109e-12 -3.71974e-12 
127 -1.18125e-11 -2.05165e-11 -1.35429e-11 
131 6.61796e-11 6.99773e-11 -8.47773e-11 
135 1.65812e-10 5.20642e-11 -2.36161e-10 
139 1.33717e-10 -4.73976e-11 -1.71233e-10 
143 8.99016e-11 -7.75346e-11 -9.59861e-11 
147 1.32142e-11 3.86257e-11 -6.32676e-11 
151 3.98531e-11 4.11081e-11 -1.68057e-10 
155 6.36254e-11 -4.69079e-11 -2.2878e-10 
159 4.82082e-11 -7.96603e-11 -1.16573e-10 
163 -3.75504e-12 1.35047e-11 -2.4408e-11 
167 -1.28485e-11 8.52592e-12 -7.93978e-11 
171 -1.19549e-11 -1.29741e-11 -8.0528e-11 
175 -7.92034e-12 -3.92269e-11 -4.47141e-11 
179 -5.46163e-12 1.07619e-11 -1.67881e-11 
183 -6.27329e-12 4.33499e-12 -1.29716e-11 
187 -1.32435e-11 -1.50308e-12 -2.33391e-11 
191 -6.16831e-12 -9.49282e-12 -8.43239e-12 
4 -1.89285e-12 1.64458e-12 2.49191e-12 
8 -1.45162e-11 1.75275e-11 6.08763e-12 
12 -7.79228e-12 6.76281e-12 -1.77508e-12 
16 -7.92405e-12 4.4182e-12 -3.64135e-12 
20 -1.86226e-11 8.01049e-12 1.45619e-11 
24 -8.35743e-12 3.49623e-12 2.45966e-12 
28 -1.06836e-11 4.04598e-12 -4.84387e-12 
32 -1.13815e-11 2.82532e-12 -9.98709e-12 
36 -1.91794e-11 -6.25644e-12 1.59037e-11 
40 -1.03009e-11 -6.61925e-12 -1.23741e-13 
44 -1.05656e-11 -3.85776e-12 -1.82329e-12 
48 -1.08678e-11 5.46403e-13 -7.11444e-12 
52 -5.71706e-12 -8.91366e-12 8.43312e-12 
56 -7.28167e-12 -6.01481e-12 4.8231e-12 
60 -4.43166e-12 -5.91545e-12 -2.50309e-12 
64 -8.69958e-13 -3.08858e-12 -4.82021e-12 
68 5.06153e-11 -5.04846e-11 2.94917e-11 
72 1.26163e-10 -1.6694e-10 3.40349e-11 
76 1.09874e-10 -1.41907e-10 -2.85682e-11 
80 5.64595e-11 -8.75316e-11 -5.13634e-11 
84 5.50249e-11 -1.15703e-10 8.86612e-11 
88 5.61565e-11 -2.19858e-10 3.85715e-11 
92 3.62327e-11 -1.46678e-10 -2.19025e-11 
96 2.6627e-11 -9.15107e-11 -5.89673e-11 
100 -1.24498e-11 -5.58894e-11 3.62478e-11 
104 -1.42118e-11 -7.77176e-11 1.67034e-11 
108 -8.77099e-12 -5.8116e-11 -1.49377e-11 
112 -3.47808e-13 -7.23223e-11 -4.767e-11 
116 -8.69931e-12 -1.3112e-11 1.35928e-11 
120 -1.65245e-11 -2.34999e-11 7.08825e-12 
124 -1.61454e-11 -2.51064e-11 -2.59787e-12 
128 -5.51249e-12 -1.33308e-11 -7.55741e-12 
132 1.12903e-10 7.82108e-11 -1.41593e-10 
136 1.05864e-10 2.19816e-11 -1.42225e-10 
140 1.57154e-10 -4.52765e-11 -2.00994e-10 
144 4.35293e-11 -4.67791e-11 -6.79815e-11 
148 4.50924e-11 7.68954e-11 -1.37266e-10 
152 5.72456e-11 2.66443e-11 -1.68963e-10 
156 6.44052e-11 -4.27628e-11 -2.31918e-10 
160 1.34869e-11 -5.74051e-11 -8.87187e-11 
164 -8.78171e-12 5.85197e-11 -7.97953e-11 
168 -1.52906e-11 1.80957e-11 -9.11286e-11 
172 -1.68685e-11 -2.15248e-11 -9.99282e-11 
176 -6.51578e-12 -3.43921e-11 -5.4663e-11 
180 -1.78051e-11 2.22022e-11 -1.73615e-11 
184 -2.13152e-11 1.24005e-11 -3.54183e-11 
188 -1.72361e-11 -6.86705e-12 -3.63188e-11 
192 -1.35797e-11 -1.64882e-11 -1.92923e-11 
ITEM: TIMESTEP
8000
ITEM: NUMBER OF SURFS
192
ITEM: BOX BOUNDS oo rr rr
0 0.0005
0 0.0005
0 0.0005
ITEM: SURFS id f_f_drag_blocks[1] f_f_drag_blocks[2] f_f_drag_blocks[3] 
1 1.28667e-10 7.19794e-11 9.62149e-11 
5 2.54343e-10 1.6996e-10 5.81889e-11 
9 2.30336e-10 1.49532e-10 -5.60104e-11 
13 1.38261e-10 9.84424e-11 -1.00256e-10 
17 2.87282e-10 5.01802e-11 2.0943e-10 
21 5.8035e-10 1.22907e-10 1.36136e-10 
25 5.37567e-10 1.20696e-10 -1.13117e-10 
29 2.24776e-10 5.60825e-11 -1.61497e-10 
33 2.39425e-10 -3.97287e-11 1.50924e-10 
37 3.84257e-10 -6.90596e-11 7.89767e-11 
41 5.31083e-10 -1.2777e-10 -9.29731e-11 
45 2.31719e-10 -5.42103e-11 -1.43368e-10 
49 1.92982e-10 -1.07142e-10 1.00557e-10 
53 2.74012e-10 -1.42542e-10 5.4942e-11 
57 2.27011e-10 -1.36933e-10 -4.00576e-11 
61 1.53809e-10 -9.14472e-11 -8.04173e-11 
65 4.12575e-11 5.3761e-11 4.69639e-11 
69 1.40401e-10 1.87368e-10 3.86815e-11 
73 1.76375e-10 2.13805e-10 -5.82948e-11 
77 9.79597e-11 1.07534e-10 -7.76407e-11 
81 1.87033e-11 5.52755e-11 4.47355e-11 
85 4.11636e-11 1.48696e-10 3.08253e-11 
89 7.23731e-11 2.36125e-10 -5.78626e-11 
93 2.50372e-11 6.73447e-11 -5.25641e-11 
97 -5.3874e-12 2.37886e-11 1.90664e-11 
101 -2.55475e-12 9.38075e-11 2.13128e-11 
105 -2.66762e-11 1.08098e-10 -3.09086e-11 
109 -4.23384e-12 4.73191e-11 -3.40144e-11 
113 -7.20528e-12 1.5184e-11 9.5355e-12 
117 -3.60158e-12 1.63197e-11 4.14949e-13 
121 -2.26772e-11 4.28629e-11 -2.96133e-12 
125 -7.38837e-12 1.16594e-11 -8.47635e-12 
129 5.48779e-11 6.4045e-11 6.80699e-11 
133 1.12846e-10 4.06225e-11 1.66903e-10 
137 1.75449e-10 -6.40518e-11 2.26088e-10 
141 9.39996e-11 -8.57774e-11 1.02931e-10 
145 3.37914e-11 5.34115e-11 8.63041e-11 
149 5.37832e-11 3.88744e-11 1.92678e-10 
153 5.97829e-11 -4.87624e-11 2.00013e-10 
157 3.24344e-11 -8.23137e-11 1.15247e-10 
161 -5.46961e-12 5.02135e-11 7.8942e-11 
165 -1.08847e-11 1.83496e-11 8.55303e-11 
169 -1.41677e-11 -2.36495e-11 9.63223e-11 
173 -1.59745e-11 -4.24932e-11 5.80929e-11 
177 -5.88829e-12 1.13723e-11 1.33724e-11 
181 -6.85414e-12 9.69516e-13 1.5382e-11 
185 -1.8702e-11 -7.00659e-12 2.81735e-11 
189 -7.90609e-12 -9.05915e-12 1.51737e-11 
2 1.08671e-10 7.43223e-11 6.47343e-11 
6 2.07035e-10 1.33642e-10 3.29413e-11 
10 1.71599e-10 1.0765e-10 -3.71485e-11 
14 1.21831e-10 6.98278e-11 -7.06401e-11 
18 2.42923e-10 4.94745e-11 1.56472e-10 
22 5.21658e-10 1.16088e-10 1.3238e-10 
26 5.12819e-10 1.06861e-10 -1.06724e-10 
30 2.30805e-10 4.02625e-11 -1.43894e-10 
34 2.97879e-10 -6.66382e-11 1.92489e-10 
38 5.19353e-10 -1.07507e-10 1.34978e-10 
42 4.6689e-10 -9.26618e-11 -1.13997e-10 
46 2.00629e-10 -3.32408e-11 -1.39704e-10 
50 1.51747e-10 -1.15902e-10 1.2119e-10 
54 2.59529e-10 -1.84315e-10 6.57233e-11 
58 2.67978e-10 -1.58694e-10 -6.37162e-11 
62 1.09897e-10 -6.73936e-11 -7.85223e-11 
66 1.09685e-10 1.28365e-10 7.73237e-11 
70 9.14337e-11 1.13132e-10 3.22411e-11 
74 1.06556e-10 1.37485e-10 -2.6362e-11 
78 4.11831e-11 5.70391e-11 -3.4136e-11 
82 1.86453e-11 8.19952e-11 4.64864e-11 
86 6.36105e-11 2.2571e-10 4.58861e-11 
90 4.89619e-11 1.86467e-10 -3.66978e-11 
94 1.87984e-11 8.59273e-11 -5.10898e-11 
98 -1.42325e-11 8.8471e-11 6.91572e-11 
102 -2.64675e-11 1.54596e-10 3.17208e-11 
106 -9.26718e-12 5.03888e-11 -1.05728e-11 
110 -3.34727e-13 4.7056e-11 -3.18697e-11 
114 -7.37323e-12 1.75893e-11 1.23105e-11 
118 -1.73352e-11 2.96025e-11 8.52085e-12 
122 -6.78946e-12 1.68672e-11 -2.93426e-12 
126 -2.93552e-12 5.605e-12 -5.18113e-12 
130 8.6156e-11 5.53311e-11 8.98163e-11 
134 1.56803e-10 3.02515e-11 1.98085e-10 
138 1.28158e-10 -3.86475e-11 1.74942e-10 
142 5.3442e-11 -3.87607e-11 8.76952e-11 
146 3.93933e-11 9.72841e-11 1.42973e-10 
150 6.36362e-11 4.0101e-11 2.00027e-10 
154 4.33246e-11 -3.4099e-11 1.42209e-10 
158 1.69745e-11 -6.87901e-11 8.68905e-11 
162 -1.36905e-11 4.08178e-11 6.34975e-11 
166 -7.1272e-12 2.7386e-11 9.51434e-11 
170 -1.32998e-11 -2.49272e-11 1.07075e-10 
174 -3.52094e-12 -3.33647e-11 5.45743e-11 
178 -3.15209e-12 4.69711e-12 4.11097e-12 
182 -8.89265e-12 4.05831e-12 1.80606e-11 
186 -1.55813e-11 -1.23379e-11 3.97543e-11 
190 -7.79737e-12 -1.00416e-11 1.55878e-11 
3 -1.91508e-11 1.01932e-11 1.10587e-11 
7 -5.58389e-12 5.79387e-12 3.00449e-12 
11 -1.03958e-11 1.12093e-11 -2.42853e-12 
15 -1.95048e-11 1.78956e-11 -1.41035e-11 
19 -8.69325e-12 1.97261e-12 5.032e-12 
23 -1.00065e-11 5.01086e-12 2.22642e-12 
27 -1.01715e-11 2.42057e-12 -4.5916e-12 
31 -8.96939e-12 2.68267e-12 -6.53214e-12 
35 -6.75315e-12 -5.44671e-13 7.00715e-12 
39 -9.83955e-12 -1.82799e-12 -3.97376e-12 
43 -1.13822e-11 2.79611e-12 -1.47897e-12 
47 -9.37338e-12 -2.04e-12 -6.0453e-12 
51 -3.33431e-12 -2.84128e-12 3.42193e-12 
55 -3.77417e-12 -2.47656e-12 2.12831e-12 
59 -1.14794e-11 -8.16186e-12 4.02136e-12 
63 -1.98338e-12 -7.14812e-13 -2.98026e-12 
67 7.69023e-11 -1.01825e-10 8.34145e-11 
71 1.26646e-10 -1.88391e-10 5.59827e-11 
75 1.54077e-10 -1.89625e-10 -3.81809e-11 
79 1.0844e-10 -1.14864e-10 -8.77713e-11 
83 1.88857e-11 -5.61394e-11 4.2214e-11 
87 5.72841e-11 -1.72929e-10 3.36043e-11 
91 8.13379e-11 -2.48825e-10 -5.777e-11 
95 4.09721e-11 -9.79716e-11 -7.44405e-11 
99 -4.49563e-13 -2.54994e-11 2.1434e-11 
103 -7.20034e-12 -6.73571e-11 1.99641e-11 
107 -1.31794e-11 -1.12029e-10 -1.90921e-11 
111 -4.9444e-12 -4.60174e-11 -3.12455e-11 
115 -1.8213e-11 -3.48803e-11 1.66666e-11 
119 -1.5475e-11 -3.53522e-11 4.50097e-12 
123 -1.67926e-11 -1.9964e-11 -6.46971e-12 
127 -8.47194e-12 -1.25145e-11 -1.16184e-11 
131 2.84788e-11 3.26887e-11 -4.84621e-11 
135 1.31893e-10 4.6486e-11 -1.67696e-10 
139 1.28951e-10 -3.18171e-11 -1.5289e-10 
143 9.64671e-11 -9.44365e-11 -1.07821e-10 
147 2.78439e-11 7.34435e-11 -9.83808e-11 
151 6.60576e-11 4.09625e-11 -2.01389e-10 
155 7.68255e-11 -5.32882e-11 -2.35727e-10 
159 4.78405e-11 -8.90384e-11 -1.08619e-10 
163 -6.44667e-12 3.52364e-11 -5.27048e-11 
167 -1.25358e-11 9.23043e-12 -7.12038e-11 
171 -1.38543e-11 -1.39914e-11 -7.04641e-11 
175 -5.34122e-13 -1.44273e-11 -2.69087e-11 
179 -1.34166e-11 1.34432e-11 -2.1285e-11 
183 -1.35502e-11 7.09627e-12 -2.08028e-11 
187 -1.34598e-11 -1.10376e-11 -2.62967e-11 
191 -8.66192e-12 -2.39786e-12 -1.27058e-11 
4 -4.92216e-12 4.13319e-12 2.53872e-12 
8 -8.38359e-12 5.53828e-12 -2.94888e-13 
12 -1.50024e-11 9.70832e-12 -2.4629e-12 
16 -1.08262e-11 5.70132e-12 -6.48356e-12 
20 -1.31938e-11 2.87729e-12 1.24565e-11 
24 -9.83069e-12 3.22781e-12 3.50131e-12 
28 -1.65319e-11 4.63587e-12 -2.89002e-12 
32 -5.32009e-12 1.59892e-12 -8.2023e-12 
36 -5.19935e-12 1.45682e-12 1.6973e-12 
40 -1.00565e-11 -6.67921e-12 3.03909e-12 
44 -5.71426e-12 -1.23265e-12 -7.38033e-13 
48 -1.17135e-11 -1.00733e-12 -1.34059e-11 
52 -1.42064e-11 -1.227e-11 1.46024e-11 
56 -8.91855e-12 -8.96572e-12 2.14894e-12 
60 -3.24583e-12 -3.89136e-12 -7.38255e-13 
64 -9.26415e-12 -9.53618e-12 -1.15295e-11 
68 7.25335e-11 -9.8342e-11 6.43776e-11 
72 1.07729e-10 -1.43618e-10 3.38185e-11 
76 1.00823e-10 -1.49376e-10 -2.39317e-11 
80 6.65152e-11 -8.61713e-11 -5.15715e-11 
84 4.50312e-11 -1.2659e-10 8.78276e-11 
88 5.15597e-11 -2.18441e-10 3.90956e-11 
92 5.68996e-11 -1.86156e-10 -4.47559e-11 
96 1.85355e-11 -8.83707e-11 -5.44232e-11 
100 -1.66367e-11 -7.7202e-11 5.19586e-11 
104 -1.61876e-11 -8.99414e-11 2.82539e-11 
108 -5.70768e-12 -7.48626e-11 -1.79641e-11 
112 -2.94609e-12 -5.48128e-11 -3.63735e-11 
116 -1.22635e-11 -2.05376e-11 1.61156e-11 
120 -2.05273e-11 -3.16973e-11 1.05603e-11 
124 -1.96075e-11 -2.68616e-11 -3.17869e-12 
128 -1.25817e-11 -2.10667e-11 -2.40206e-11 
132 8.59657e-11 7.01003e-11 -1.04138e-10 
136 1.09162e-10 3.25815e-11 -1.32466e-10 
140 9.05036e-11 -2.68267e-11 -1.44134e-10 
144 5.64173e-11 -5.04894e-11 -8.95149e-11 
148 5.17757e-11 8.85104e-11 -1.4771e-10 
152 6.66404e-11 2.88567e-11 -1.93774e-10 
156 4.14e-11 -3.63876e-11 -1.56628e-10 
160 2.92597e-11 -6.95765e-11 -1.00147e-10 
164 -3.85719e-12 3.22878e-11 -5.0591e-11 
168 -2.26161e-11 1.98109e-11 -1.02764e-10 
172 -1.27337e-11 -1.46873e-11 -8.72973e-11 
176 -1.13283e-11 -4.43646e-11 -6.55611e-11 
180 -1.03628e-11 1.09602e-11 -1.25347e-11 
184 -1.12308e-11 1.19957e-12 -2.2336e-11 
188 -1.05716e-11 -1.14608e-11 -2.19314e-11 
192 -1.54434e-11 -1.44619e-11 -2.09697e-11 
ITEM: TIMESTEP
9000
ITEM: NUMBER OF SURFS
192
ITEM: BOX BOUNDS oo rr rr
0 0.0005
0 0.0005
0 0.0005
ITEM: SURFS id f_f_drag_blocks[1] f_f_drag_blocks[2] f_f_drag_blocks[3] 
1 1.36206e-10 8.48056e-11 9.33463e-11 
5 2.99151e-10 1.86145e-10 7.69747e-11 
9 2.51855e-10 1.90979e-10 -6.27711e-11 
13 1.6913e-10 1.24411e-10 -1.39421e-10 
17 2.06509e-10 4.59982e-11 1.416e-10 
21 5.95219e-10 1.02732e-10 1.1205e-10 
25 5.63915e-10 1.28282e-10 -1.45406e-10 
29 3.32196e-10 7.2225e-11 -2.26378e-10 
33 2.28026e-10 -4.32122e-11 1.36921e-10 
37 4.48319e-10 -9.61552e-11 6.58298e-11 
41 4.5258e-10 -1.14387e-10 -7.85383e-11 
45 2.68423e-10 -6.54686e-11 -1.60407e-10 
49 1.33165e-10 -7.34546e-11 8.23684e-11 
53 2.30863e-10 -1.30965e-10 3.6343e-11 
57 2.36488e-10 -1.61061e-10 -3.4427e-11 
61 9.7068e-11 -7.98785e-11 -6.21405e-11 
65 5.67694e-11 6.39089e-11 4.96674e-11 
69 1.26716e-10 1.96194e-10 4.18115e-11 
73 1.49438e-10 1.90263e-10 -5.61607e-11 
77 9.48654e-11 1.14918e-10 -9.24365e-11 
81 3.51588e-11 1.12755e-10 8.28255e-11 
85 4.71761e-11 1.78154e-10 4.50796e-11 
89 6.89949e-11 2.25981e-10 -4.683e-11 
93 4.07094e-11 1.22994e-10 -8.22135e-11 
97 -4.80027e-12 5.15938e-11 3.68217e-11 
101 -1.14318e-11 6.50932e-11 1.44005e-11 
105 -2.4349e-11 1.21088e-10 -3.00836e-11 
109 -1.99063e-12 4.96751e-11 -3.07427e-11 
113 -2.82453e-12 1.41074e-11 7.29771e-12 
117 -1.05825e-11 2.38182e-11 5.45965e-13 
121 -2.67828e-12 6.41832e-12 3.79906e-14 
125 -8.31738e-12 1.14596e-11 -7.56331e-12 
129 6.94873e-11 7.09034e-11 1.01515e-10 
133 1.09673e-10 3.42109e-11 1.45934e-10 
137 1.4908e-10 -5.9403e-11 2.06502e-10 
141 1.15494e-10 -1.11588e-10 1.21468e-10 
145 2.28428e-11 7.0631e-11 1.01165e-10 
149 4.65164e-11 3.68944e-11 1.53733e-10 
153 6.49653e-11 -6.61508e-11 2.21545e-10 
157 3.71479e-11 -8.1961e-11 1.11896e-10 
161 -9.99606e-12 2.35517e-11 3.49913e-11 
165 -6.30204e-12 1.34446e-11 7.6477e-11 
169 -2.00748e-11 -3.07677e-11 1.29538e-10 
173 -7.95896e-12 -2.90959e-11 4.31431e-11 
177 -1.0306e-11 1.24544e-11 2.34352e-11 
181 -1.03746e-11 3.5189e-12 1.92467e-11 
185 -1.71412e-11 -3.79782e-12 2.75752e-11 
189 -1.25378e-11 -1.58207e-11 1.96926e-11 
2 8.35382e-11 5.55031e-11 4.87641e-11 
6 2.61674e-10 1.7602e-10 6.59697e-11 
10 2.7902e-10 1.44597e-10 -5.44024e-11 
14 1.41252e-10 7.56989e-11 -7.433e-11 
18 3.43789e-10 7.55572e-11 2.14259e-10 
22 4.62558e-10 9.97514e-11 9.30192e-11 
26 5.25695e-10 1.03765e-10 -1.11615e-10 
30 2.0394e-10 4.53617e-11 -1.333e-10 
34 2.16137e-10 -5.69829e-11 1.60445e-10 
38 6.30714e-10 -1.61582e-10 1.35572e-10 
42 5.19949e-10 -1.1746e-10 -1.1709e-10 
46 2.39683e-10 -4.31923e-11 -1.61687e-10 
50 1.38595e-10 -9.52245e-11 1.08901e-10 
54 2.98246e-10 -2.03296e-10 8.57615e-11 
58 2.08993e-10 -1.21011e-10 -3.58044e-11 
62 8.29108e-11 -5.54284e-11 -6.20437e-11 
66 6.905e-11 8.39949e-11 5.38526e-11 
70 1.16084e-10 1.5763e-10 3.88262e-11 
74 1.22029e-10 1.78255e-10 -4.14051e-11 
78 4.72096e-11 6.3809e-11 -4.20349e-11 
82 3.16032e-11 1.08915e-10 6.44269e-11 
86 6.90416e-11 1.87994e-10 4.82258e-11 
90 7.31708e-11 2.6887e-10 -5.98075e-11 
94 2.38138e-11 1.02869e-10 -6.70356e-11 
98 -9.27289e-12 5.46604e-11 3.94594e-11 
102 -2.29744e-11 1.30557e-10 3.52867e-11 
106 -1.38478e-11 1.1044e-10 -2.54987e-11 
110 -7.62633e-12 5.15938e-11 -4.4271e-11 
114 -1.76565e-11 2.85866e-11 1.7226e-11 
118 -1.86153e-11 1.69929e-11 8.45137e-12 
122 -3.62068e-11 4.21396e-11 -1.30851e-11 