ITEM: TIMESTEP
10000
ITEM: NUMBER OF SURFS
192
ITEM: BOX BOUNDS oo rr rr
0 0.0005
0 0.0005
0 0.0005
ITEM: SURFS id f_f_drag_blocks[1] f_f_drag_blocks[2] f_f_drag_blocks[3] 
1 0 0 0 
5 0 0 0 
9 0 0 0 
13 0 0 0 
17 0 0 0 
21 0 0 0 
25 0 0 0 
29 0 0 0 
33 0 0 0 
37 0 0 0 
41 0 0 0 
45 0 0 0 
49 0 0 0 
53 0 0 0 
57 0 0 0 
61 0 0 0 
65 0 0 0 
69 0 0 0 
73 0 0 0 
77 0 0 0 
81 0 0 0 
85 0 0 0 
89 0 0 0 
93 0 0 0 
97 0 0 0 
101 0 0 0 
105 0 0 0 
109 0 0 0 
113 0 0 0 
117 0 0 0 
121 0 0 0 
125 0 0 0 
129 0 0 0 
133 0 0 0 
137 0 0 0 
141 0 0 0 
145 0 0 0 
149 0 0 0 
153 0 0 0 
157 0 0 0 
161 0 0 0 
165 0 0 0 
169 0 0 0 
173 0 0 0 
177 0 0 0 
181 0 0 0 
185 0 0 0 
189 0 0 0 
2 0 0 0 
6 0 0 0 
10 0 0 0 
14 0 0 0 
18 0 0 0 
22 0 0 0 
26 0 0 0 
30 0 0 0 
34 0 0 0 
38 0 0 0 
42 0 0 0 
46 0 0 0 
50 0 0 0 
54 0 0 0 
58 0 0 0 
62 0 0 0 
66 0 0 0 
70 0 0 0 
74 0 0 0 
78 0 0 0 
82 0 0 0 
86 0 0 0 
90 0 0 0 
94 0 0 0 
98 0 0 0 
102 0 0 0 
106 0 0 0 
110 0 0 0 
114 0 0 0 
118 0 0 0 
122 0 0 0 
126 0 0 0 
130 0 0 0 
134 0 0 0 
138 0 0 0 
142 0 0 0 
146 0 0 0 
150 0 0 0 
154 0 0 0 
158 0 0 0 
162 0 0 0 
166 0 0 0 
170 0 0 0 
174 0 0 0 
178 0 0 0 
182 0 0 0 
186 0 0 0 
190 0 0 0 
3 0 0 0 
7 0 0 0 
11 0 0 0 
15 0 0 0 
19 0 0 0 
23 0 0 0 
27 0 0 0 
31 0 0 0 
35 0 0 0 
39 0 0 0 
43 0 0 0 
47 0 0 0 
51 0 0 0 
55 0 0 0 
59 0 0 0 
63 0 0 0 
67 0 0 0 
71 0 0 0 
75 0 0 0 
79 0 0 0 
83 0 0 0 
87 0 0 0 
91 0 0 0 
95 0 0 0 
99 0 0 0 
103 0 0 0 
107 0 0 0 
111 0 0 0 
115 0 0 0 
119 0 0 0 
123 0 0 0 
127 0 0 0 
131 0 0 0 
135 0 0 0 
139 0 0 0 
143 0 0 0 
147 0 0 0 
151 0 0 0 
155 0 0 0 
159 0 0 0 
163 0 0 0 
167 0 0 0 
171 0 0 0 
175 0 0 0 
179 0 0 0 
183 0 0 0 
187 0 0 0 
191 0 0 0 
4 0 0 0 
8 0 0 0 
12 0 0 0 
16 0 0 0 
20 0 0 0 
24 0 0 0 
28 0 0 0 
32 0 0 0 
36 0 0 0 
40 0 0 0 
44 0 0 0 
48 0 0 0 
52 0 0 0 
56 0 0 0 
60 0 0 0 
64 0 0 0 
68 0 0 0 
72 0 0 0 
76 0 0 0 
80 0 0 0 
84 0 0 0 
88 0 0 0 
92 0 0 0 
96 0 0 0 
100 0 0 0 
104 0 0 0 
108 0 0 0 
112 0 0 0 
116 0 0 0 
120 0 0 0 
124 0 0 0 
128 0 0 0 
132 0 0 0 
136 0 0 0 
140 0 0 0 
144 0 0 0 
148 0 0 0 
152 0 0 0 
156 0 0 0 
160 0 0 0 
164 0 0 0 
168 0 0 0 
172 0 0 0 
176 0 0 0 
180 0 0 0 
184 0 0 0 
188 0 0 0 
192 0 0 0 
ITEM: TIMESTEP
11000
ITEM: NUMBER OF SURFS
192
ITEM: BOX BOUNDS oo rr rr
0 0.0005
0 0.0005
0 0.0005
ITEM: SURFS id f_f_drag_blocks[1] f_f_drag_blocks[2] f_f_drag_blocks[3] 
1 1.50531e-10 1.00141e-10 1.02635e-10 
5 3.25718e-10 1.90287e-10 7.12287e-11 
9 1.87703e-10 1.29233e-10 -4.54373e-11 
13 1.35051e-10 1.07542e-10 -1.02841e-10 
17 2.16267e-10 4.10976e-11 1.42421e-10 
21 5.35595e-10 1.09937e-10 1.18891e-10 
25 7.09256e-10 1.51198e-10 -1.3854e-10 
29 1.45646e-10 2.91232e-11 -1.04864e-10 
33 2.16551e-10 -4.04853e-11 1.21482e-10 
37 5.09522e-10 -1.09536e-10 1.00071e-10 
41 5.19238e-10 -1.27841e-10 -1.19366e-10 
45 2.03837e-10 -4.851e-11 -1.34225e-10 
49 1.03933e-10 -6.44457e-11 5.66909e-11 
53 2.0317e-10 -1.17097e-10 4.11149e-11 
57 1.57094e-10 -9.5811e-11 -3.69216e-11 
61 1.31037e-10 -8.30878e-11 -5.74914e-11 
65 4.71993e-11 6.08856e-11 5.05419e-11 
69 9.11784e-11 1.4394e-10 3.61937e-11 
73 1.42685e-10 1.7599e-10 -3.63735e-11 
77 7.01255e-11 6.31155e-11 -6.64518e-11 
81 3.97115e-11 1.21029e-10 8.12003e-11 
85 3.71587e-11 1.35236e-10 5.0634e-11 
89 5.46064e-11 2.00442e-10 -4.36771e-11 
93 4.62157e-11 1.09034e-10 -8.40347e-11 
97 -1.00722e-11 5.19602e-11 2.70524e-11 
101 -5.56892e-13 8.97734e-11 1.88049e-11 
105 -2.23662e-11 9.92824e-11 -1.76965e-11 
109 -7.4185e-12 8.62338e-11 -7.40643e-11 
113 -9.46549e-12 2.02536e-11 1.21572e-11 
117 -1.40593e-11 3.00056e-11 1.4387e-12 
121 -1.24052e-11 9.43167e-12 -4.24678e-12 
125 -1.05011e-11 1.77911e-11 -1.26386e-11 
129 7.54391e-11 7.8368e-11 1.02229e-10 
133 1.59704e-10 6.43148e-11 2.47845e-10 
137 1.845e-10 -6.29544e-11 2.18514e-10 
141 9.9808e-11 -7.69449e-11 1.0139e-10 
145 2.73752e-11 6.29714e-11 7.41434e-11 
149 5.67961e-11 2.49557e-11 2.20967e-10 
153 5.746e-11 -5.53265e-11 2.34124e-10 
157 5.39361e-11 -8.70899e-11 1.30856e-10 
161 -1.32095e-12 3.7909e-11 5.90823e-11 
165 -3.35298e-11 2.61163e-11 1.15973e-10 
169 -2.75754e-11 -1.55081e-11 1.54063e-10 
173 -2.76063e-12 -4.20017e-11 7.52482e-11 
177 8.10112e-13 5.61751e-12 3.1657e-12 
181 -1.49232e-11 6.45196e-12 2.13287e-11 
185 -1.32554e-11 6.35292e-13 2.81912e-11 
189 0 0 0 
2 1.02689e-10 9.76177e-11 5.463e-11 
6 3.10174e-10 2.02652e-10 3.83965e-11 
10 2.39245e-10 1.64748e-10 -4.62077e-11 
14 2.01854e-10 1.04782e-10 -8.39374e-11 
18 2.2766e-10 5.1122e-11 1.36533e-10 
22 5.47607e-10 1.14094e-10 1.18637e-10 
26 5.05059e-10 9.71358e-11 -1.22171e-10 
30 2.02123e-10 4.19125e-11 -1.21182e-10 
34 2.51493e-10 -5.17467e-11 1.66493e-10 
38 4.9119e-10 -1.08103e-10 1.0845e-10 
42 4.77936e-10 -6.60621e-11 -1.09275e-10 
46 2.35156e-10 -4.92054e-11 -1.4221e-10 
50 1.16125e-10 -9.3562e-11 1.01681e-10 
54 2.46645e-10 -1.5997e-10 6.80857e-11 
58 2.53669e-10 -1.71198e-10 -6.41085e-11 
62 8.21871e-11 -4.87147e-11 -6.25188e-11 
66 9.41069e-11 9.1279e-11 6.5953e-11 
70 1.15806e-10 1.33088e-10 2.15649e-11 
74 6.45733e-11 8.46165e-11 -1.8663e-11 
78 6.70669e-11 9.77868e-11 -5.35697e-11 
82 5.22944e-11 1.7365e-10 1.19309e-10 
86 7.73947e-11 2.44538e-10 4.93066e-11 
90 5.10095e-11 1.96749e-10 -5.90361e-11 
94 2.82143e-11 7.74831e-11 -6.32925e-11 
98 -1.28711e-11 5.7854e-11 3.1266e-11 
102 -3.37553e-11 1.28682e-10 3.43893e-11 
106 -1.34301e-11 9.86954e-11 -2.49574e-11 
110 -6.5311e-12 5.2343e-11 -3.018e-11 
114 -9.93002e-12 1.62546e-11 8.82022e-12 
118 -2.18432e-11 2.65475e-11 6.89417e-12 
122 -3.08329e-11 4.94087e-11 -1.21233e-11 
126 0 0 0 
130 9.66777e-11 6.64097e-11 1.12189e-10 
134 1.36893e-10 4.42125e-11 1.84597e-10 
138 7.78041e-11 -2.76107e-11 1.20244e-10 
142 5.58334e-11 -4.86848e-11 7.29499e-11 
146 3.682e-11 5.79759e-11 6.83835e-11 
150 1.13355e-10 4.48051e-11 2.90033e-10 
154 4.11255e-11 -3.82534e-11 1.88108e-10 
158 1.84144e-11 -5.25963e-11 6.65441e-11 
162 -5.47772e-12 2.51449e-11 2.94578e-11 
166 -9.8623e-12 3.64216e-11 1.04496e-10 
170 -1.47025e-11 -2.55216e-11 1.08223e-10 
174 -5.30316e-12 -2.0805e-11 4.93473e-11 
178 -2.11972e-11 2.37096e-11 2.04057e-11 
182 -5.34828e-12 3.38665e-12 1.22696e-11 
186 -1.73517e-11 -1.11778e-11 3.91974e-11 
190 -1.49082e-11 -1.25879e-11 2.07532e-11 
3 -1.31742e-11 1.37579e-11 8.11878e-12 
7 0 0 0 
11 -3.81247e-12 7.82277e-13 -2.15082e-12 
15 -9.01571e-12 3.66256e-12 -8.21705e-12 
19 -2.31098e-11 6.03486e-12 2.0295e-11 
23 -1.97676e-11 -4.59407e-12 4.85039e-12 
27 -2.94011e-11 4.67391e-12 -3.87081e-12 
31 -1.21232e-11 6.76777e-12 -4.02559e-12 
35 -2.23788e-11 -1.4047e-12 1.76727e-11 
39 -9.30603e-12 -8.00736e-14 4.77506e-12 
43 0 0 0 
47 -1.11845e-11 -2.31486e-12 -9.73016e-12 
51 -1.5468e-11 -5.78212e-12 4.6663e-12 
55 -1.53097e-11 -1.18388e-11 1.05697e-11 
59 -5.92826e-12 -6.60968e-12 -1.62051e-12 
63 0 0 0 
67 3.60771e-11 -6.55565e-11 3.92405e-11 
71 5.77882e-11 -9.59705e-11 2.61216e-11 
75 1.29292e-10 -1.69276e-10 -4.15198e-11 
79 1.10179e-10 -1.14535e-10 -9.71024e-11 
83 3.17704e-11 -8.22888e-11 6.03099e-11 
87 5.40618e-11 -1.55046e-10 4.6581e-11 
91 4.90587e-11 -1.50543e-10 -3.35551e-11 
95 4.82926e-11 -1.36558e-10 -9.88737e-11 
99 -3.82267e-12 -7.3908e-11 3.90225e-11 
103 -9.41732e-12 -1.14759e-10 1.6621e-11 
107 -1.29025e-11 -8.31429e-11 -1.72636e-11 
111 -1.16241e-11 -8.1669e-11 -5.57382e-11 
115 -6.74081e-12 -1.79083e-11 8.4762e-12 
119 0 0 0 
123 -2.10608e-11 -3.50172e-11 -3.19012e-12 
127 -9.23495e-12 -1.41765e-11 -1.08553e-11 
131 4.20297e-11 5.37783e-11 -6.44728e-11 
135 1.14116e-10 6.78368e-11 -1.82364e-10 
139 1.63735e-10 -3.92139e-11 -2.09631e-10 
143 1.06796e-10 -7.29544e-11 -1.15899e-10 
147 2.01149e-11 4.34242e-11 -6.72499e-11 
151 4.69678e-11 4.9325e-11 -2.03963e-10 
155 8.5522e-11 -5.01733e-11 -2.65644e-10 
159 3.31622e-11 -8.42466e-11 -1.05061e-10 
163 -6.97584e-12 3.13323e-11 -4.88258e-11 
167 -1.14873e-11 1.38602e-11 -8.78735e-11 
171 -1.76173e-11 -1.99493e-11 -8.43263e-11 
175 -2.08091e-13 -2.55368e-11 -4.82813e-11 
179 -8.56676e-12 1.27254e-11 -2.04649e-11 
183 -2.19954e-11 1.72391e-12 -2.575e-11 
187 -5.84003e-12 -4.52726e-12 -1.08455e-11 
191 -1.09865e-11 -1.58266e-11 -1.96351e-11 
4 -5.09952e-12 4.17877e-12 3.58255e-13 
8 -8.71781e-12 2.92675e-13 1.28296e-12 
12 -1.29989e-11 1.16204e-11 -2.32272e-12 
16 -1.5094e-12 3.94697e-13 -7.57498e-13 
20 -2.62648e-12 3.27061e-12 1.04079e-11 
24 -2.57363e-11 1.59719e-11 5.62357e-12 
28 -2.37708e-12 1.59859e-12 -2.60328e-12 
32 -5.22904e-12 -7.21963e-13 -5.00424e-12 
36 -2.2399e-11 -9.49077e-12 9.46792e-12 
40 0 0 0 
44 -5.26149e-12 -4.45133e-12 -2.3685e-13 
48 -3.94409e-12 -3.37306e-13 -1.01501e-11 
52 -1.39378e-11 -7.06516e-12 1.44828e-11 
56 -1.70988e-11 -1.76657e-11 7.34314e-12 
60 -3.81881e-12 -5.02248e-12 -3.63621e-12 
64 -9.23406e-12 -2.89416e-12 -8.78178e-12 
68 6.18569e-11 -7.54908e-11 5.71934e-11 
72 9.6942e-11 -1.30778e-10 3.03662e-11 
76 1.02566e-10 -1.63637e-10 -3.8906e-11 
80 4.8506e-11 -7.74479e-11 -4.54486e-11 
84 3.63028e-11 -1.01475e-10 7.29487e-11 
88 6.44304e-11 -1.7879e-10 3.16648e-11 
92 2.97704e-11 -1.45701e-10 -2.55493e-11 
96 1.0579e-11 -3.76837e-11 -3.09641e-11 
100 -8.59542e-12 -1.8016e-11 1.16067e-11 
104 -1.34323e-11 -6.37087e-11 1.42836e-11 
108 -1.9112e-11 -7.57946e-11 -1.83247e-11 
112 -2.70589e-12 -6.90656e-11 -5.4606e-11 
116 -9.33718e-12 -1.76866e-11 1.57906e-11 
120 -9.94172e-12 -1.41301e-11 8.84693e-12 
124 -1.07656e-11 -1.10029e-11 -1.99701e-12 
128 -8.7196e-12 -1.45917e-11 -1.05687e-11 
132 6.01343e-11 2.63344e-11 -6.60706e-11 
136 8.19437e-11 2.81209e-11 -1.10777e-10 
140 1.20212e-10 -2.27251e-11 -1.54589e-10 
144 4.16295e-11 -4.12814e-11 -5.76061e-11 
148 2.7791e-11 3.86259e-11 -7.83343e-11 
152 8.58218e-11 3.9691e-11 -2.5169e-10 
156 3.83282e-11 -2.82547e-11 -1.38816e-10 
160 3.37026e-11 -7.55044e-11 -1.25478e-10 
164 9.84418e-13 1.58807e-11 -1.00824e-11 
168 -9.16151e-12 2.36463e-11 -7.0745e-11 
172 -9.09344e-12 -1.52028e-11 -8.33625e-11 
176 -2.29254e-12 -2.84937e-11 -3.70916e-11 
180 -2.00704e-11 2.01887e-11 -2.16098e-11 
184 -1.7009e-11 9.93956e-13 -2.40178e-11 
188 -1.59222e-11 -1.33832e-11 -2.79304e-11 
192 -1.38586e-11 -1.80541e-11 -1.72922e-11 
ITEM: TIMESTEP
12000
ITEM: NUMBER OF SURFS
192
ITEM: BOX BOUNDS oo rr rr
0 0.0005
0 0.0005
0 0.0005
ITEM: SURFS id f_f_drag_blocks[1] f_f_drag_blocks[2] f_f_drag_blocks[3] 
1 1.4091e-10 6.97388e-11 8.77326e-11 
5 2.81151e-10 1.45809e-10 9.13967e-11 
9 2.51905e-10 1.49401e-10 -5.85195e-11 
13 9.80378e-11 7.12593e-11 -8.03937e-11 
17 2.4855e-10 3.33371e-11 1.65579e-10 
21 3.78888e-10 8.19246e-11 9.57913e-11 
25 5.46434e-10 1.30792e-10 -1.22092e-10 
29 2.57298e-10 6.41953e-11 -1.76783e-10 
33 1.52889e-10 -1.51478e-11 8.52783e-11 
37 4.44153e-10 -9.14425e-11 9.06607e-11 
41 4.59715e-10 -9.62733e-11 -7.49986e-11 
45 2.98878e-10 -7.36473e-11 -1.9832e-10 
49 1.22404e-10 -5.93987e-11 7.17893e-11 
53 3.17131e-10 -1.78174e-10 6.11766e-11 
57 3.07146e-10 -2.01822e-10 -6.36547e-11 
61 7.49549e-11 -5.88351e-11 -3.58239e-11 
65 6.29308e-11 7.32619e-11 6.84789e-11 
69 7.63438e-11 1.00223e-10 3.55199e-11 
73 1.44056e-10 1.86104e-10 -5.57933e-11 
77 1.10577e-10 1.2711e-10 -1.03129e-10 
81 1.82121e-11 4.38683e-11 3.10691e-11 
85 8.18445e-11 2.26286e-10 5.06376e-11 
89 8.18908e-11 2.54114e-10 -3.88214e-11 
93 2.54975e-11 8.35445e-11 -6.89635e-11 
97 -8.39633e-12 7.45405e-11 4.42416e-11 
101 -1.22618e-11 9.50308e-11 3.62498e-11 
105 -9.78989e-12 8.38663e-11 -1.90715e-11 
109 -1.58078e-11 9.72945e-11 -5.18312e-11 
113 2.68248e-14 2.30305e-11 9.48347e-12 
117 -9.13424e-12 1.10171e-11 2.07149e-12 
121 -2.54985e-12 1.13435e-11 -3.46662e-12 
125 2.62713e-12 4.15193e-12 -1.27062e-12 
129 6.4962e-11 8.14705e-11 9.19453e-11 
133 1.16115e-10 4.35329e-11 1.53231e-10 
137 1.36816e-10 -4.61215e-11 1.83804e-10 
141 7.4249e-11 -7.15451e-11 8.11477e-11 
145 1.07769e-11 6.56387e-11 7.54187e-11 
149 8.21478e-11 6.69223e-11 2.64838e-10 
153 3.38872e-11 -2.35061e-11 1.17375e-10 
157 2.54786e-11 -8.2076e-11 1.40766e-10 
161 -7.20598e-12 3.4128e-11 4.79036e-11 
165 -1.25762e-11 2.07651e-11 8.78218e-11 
169 -2.13945e-11 -2.53029e-11 1.04616e-10 
173 -6.20553e-12 -3.30924e-11 3.96418e-11 
177 -1.70774e-11 1.6465e-11 3.49103e-11 
181 0 0 0 
185 -4.60198e-13 1.31927e-12 8.1036e-12 
189 -1.39401e-11 -1.44821e-11 1.9782e-11 
2 6.99118e-11 5.91156e-11 5.30183e-11 
6 1.84852e-10 1.08406e-10 5.37387e-11 
10 1.61715e-10 1.0306e-10 -3.17351e-11 
14 1.16785e-10 6.39834e-11 -6.94235e-11 
18 2.57395e-10 6.01225e-11 1.61009e-10 
22 4.55196e-10 1.28221e-10 9.12844e-11 
26 5.01501e-10 1.17546e-10 -1.06062e-10 
30 2.93465e-10 4.61406e-11 -1.67263e-10 
34 2.78324e-10 -5.81105e-11 1.92515e-10 
38 5.44997e-10 -1.5013e-10 1.17244e-10 
42 5.21214e-10 -1.01802e-10 -1.11919e-10 
46 2.02211e-10 -3.8427e-11 -1.23191e-10 
50 1.13941e-10 -8.58859e-11 7.77905e-11 
54 2.7011e-10 -1.90814e-10 6.30851e-11 
58 2.26968e-10 -1.33041e-10 -3.93398e-11 
62 1.31389e-10 -7.67331e-11 -9.78688e-11 
66 1.23902e-10 1.48622e-10 1.07787e-10 
70 1.34906e-10 1.83903e-10 3.31543e-11 
74 8.85167e-11 1.32832e-10 -1.4064e-11 
78 8.81651e-11 1.35724e-10 -8.354e-11 
82 3.96823e-11 1.31283e-10 8.03767e-11 
86 2.15907e-11 1.1008e-10 2.23798e-11 
90 6.55339e-11 2.65704e-10 -5.93965e-11 
94 3.12045e-11 9.08949e-11 -6.71267e-11 
98 -1.38178e-11 7.95677e-11 4.88864e-11 
102 -1.64955e-11 1.49581e-10 4.32619e-11 
106 -1.63441e-11 8.45062e-11 -1.25652e-11 
110 -7.08089e-12 3.08365e-11 -2.59127e-11 
114 0 0 0 
118 -3.09661e-11 4.82546e-11 1.02451e-11 
122 -1.31356e-11 2.04683e-11 -6.59823e-12 
126 -5.65459e-12 1.958e-11 -5.94504e-12 
130 8.75231e-11 5.98056e-11 1.00106e-10 
134 1.12708e-10 3.60662e-11 1.38176e-10 
138 6.26154e-11 -2.25291e-11 8.80335e-11 
142 6.83732e-11 -6.77555e-11 1.03634e-10 
146 5.08879e-11 1.05697e-10 1.42458e-10 
150 6.58615e-11 4.97588e-11 1.9165e-10 
154 4.7515e-11 -3.29887e-11 1.54569e-10 
158 2.58718e-11 -2.79157e-11 5.48194e-11 
162 -5.34738e-12 4.38061e-11 7.43995e-11 
166 -1.11154e-11 1.74314e-11 6.99027e-11 
170 -1.55685e-11 -2.581e-11 8.80463e-11 
174 -7.53518e-12 -2.96862e-11 5.52623e-11 
178 -8.51951e-12 1.79318e-11 1.37927e-11 
182 -1.40776e-11 1.90266e-12 1.75524e-11 
186 -3.78924e-12 -9.80896e-13 1.6873e-11 
190 -1.81716e-12 -4.14837e-12 1.01823e-11 
3 -1.98295e-11 2.10441e-11 1.38706e-11 
7 -2.33303e-11 1.53979e-11 7.9368e-12 
11 -1.36477e-11 1.71161e-11 -6.42716e-12 
15 -4.24631e-12 1.3953e-11 -1.05986e-11 
19 -3.81204e-12 2.07124e-12 5.89618e-13 
23 0 0 0 
27 -2.79649e-12 3.51836e-14 2.83828e-12 
31 0 0 0 
35 -5.62117e-12 -1.3865e-12 1.99264e-12 
39 -1.10075e-11 -4.72709e-12 7.5188e-12 
43 -1.66264e-11 -5.37787e-12 5.54041e-13 
47 -1.20521e-11 -2.72358e-12 -9.35609e-12 
51 -4.01243e-12 -7.46296e-12 2.43516e-13 
55 -3.9252e-12 -4.8166e-12 1.24781e-12 
59 -2.06681e-11 -1.35713e-11 8.15476e-13 
63 0 0 0 
67 4.32368e-11 -7.3824e-11 6.53406e-11 
71 1.73223e-10 -2.35003e-10 5.34663e-11 
75 1.47002e-10 -1.90633e-10 -5.04346e-11 
79 7.53932e-11 -8.13888e-11 -7.22335e-11 
83 2.30191e-11 -1.17098e-10 9.25646e-11 
87 6.2851e-11 -1.99131e-10 5.93883e-11 
91 5.00539e-11 -2.57616e-10 -7.82883e-11 
95 6.7197e-11 -1.44018e-10 -1.0869e-10 
99 -1.25755e-11 -7.11267e-11 4.11896e-11 
103 -2.63672e-11 -1.14513e-10 1.03066e-11 
107 -9.74562e-12 -3.38195e-11 -1.29522e-11 
111 -3.89505e-12 -1.64144e-11 -9.15608e-12 
115 2.8025e-12 -4.87033e-12 7.82767e-14 
119 -1.36668e-11 -2.75663e-11 1.28672e-11 
123 -3.60858e-13 -6.93855e-12 2.74607e-12 
127 -1.72006e-12 -7.86724e-12 -6.7468e-12 
131 5.12949e-11 5.40475e-11 -7.20351e-11 
135 1.19957e-10 3.47572e-11 -1.53214e-10 
139 1.80112e-10 -7.11404e-11 -2.14603e-10 
143 1.06272e-10 -1.04037e-10 -1.2712e-10 
147 1.38422e-11 3.55546e-11 -6.85573e-11 
151 7.57096e-11 5.00267e-11 -2.36289e-10 
155 7.14416e-11 -3.62557e-11 -2.03144e-10 
159 5.12184e-11 -1.02984e-10 -1.3471e-10 
163 1.89109e-12 1.77526e-11 -2.82304e-11 
167 -1.43107e-11 1.97286e-11 -1.24809e-10 
171 -1.30042e-11 -1.35437e-11 -8.21503e-11 
175 -3.76604e-12 -3.83962e-11 -6.03324e-11 
179 -8.39543e-14 3.5514e-12 -4.3149e-12 
183 -9.36301e-12 3.18969e-13 -1.24071e-11 
187 -6.21036e-12 2.36148e-12 -3.86659e-12 
191 -6.30878e-12 -7.48445e-12 -8.48903e-12 
4 -1.16898e-11 5.04045e-12 7.67118e-12 
8 -6.24673e-12 1.30304e-12 -1.091e-12 
12 -3.34762e-12 4.15669e-12 4.51979e-13 
16 -2.17728e-12 2.86214e-12 -8.17417e-12 
20 -1.20627e-11 3.79893e-12 8.02834e-12 
24 -3.14061e-12 7.01715e-14 3.60928e-12 
28 -2.32605e-11 6.4798e-12 -6.78164e-12 
32 -4.7947e-12 3.42472e-12 -9.10861e-12 
36 -1.39914e-12 -5.53289e-13 2.02791e-12 
40 -7.41867e-12 -2.23162e-12 6.29465e-12 
44 -5.60914e-12 -3.68584e-12 -1.28594e-13 
48 0 0 0 
52 -9.4672e-12 -8.96619e-12 6.56984e-12 
56 -3.01314e-12 -5.05512e-12 3.94925e-12 
60 -4.12062e-12 -1.67638e-12 -1.70863e-12 
64 -2.12389e-12 1.77987e-14 -5.90602e-12 
68 7.90154e-11 -9.23748e-11 4.76797e-11 
72 1.3851e-10 -1.76927e-10 4.38152e-11 
76 1.07611e-10 -1.40174e-10 -3.85537e-11 
80 2.97796e-11 -2.61295e-11 -1.64415e-11 
84 4.4587e-11 -1.31915e-10 1.0218e-10 
88 3.56041e-11 -1.56747e-10 3.55021e-11 
92 4.05821e-11 -1.33787e-10 -3.75735e-11 
96 2.21925e-11 -8.96126e-11 -6.19804e-11 
100 -5.07721e-12 -5.54758e-11 3.51589e-11 
104 -2.96937e-11 -1.40282e-10 2.42027e-11 
108 -1.20159e-11 -9.13954e-11 -1.2756e-11 
112 -1.29249e-11 -8.10685e-11 -5.30898e-11 
116 -2.17798e-11 -3.40316e-11 2.15696e-11 
120 -3.8695e-12 -1.95709e-11 8.38534e-12 
124 -2.35142e-11 -3.44935e-11 -6.7342e-12 
128 -1.01649e-11 -1.94178e-11 -1.72891e-11 
132 1.25152e-10 9.94426e-11 -1.4739e-10 
136 1.39768e-10 4.12498e-11 -1.68671e-10 
140 1.12859e-10 -4.99253e-11 -1.52916e-10 
144 5.92151e-11 -6.14016e-11 -8.94434e-11 
148 2.62529e-11 6.03797e-11 -9.5389e-11 
152 5.99317e-11 4.76669e-11 -1.9233e-10 
156 5.77326e-11 -4.56403e-11 -2.11153e-10 
160 2.03389e-11 -3.81748e-11 -6.72484e-11 
164 2.98719e-12 3.35089e-11 -3.94452e-11 
168 -1.18369e-11 1.30046e-11 -9.66134e-11 
172 -5.36638e-13 -2.1261e-11 -5.76447e-11 
176 5.24274e-12 -4.75848e-11 -8.3335e-11 
180 -6.37945e-12 6.2643e-12 -1.31467e-11 
184 -1.06354e-11 6.61859e-12 -2.51052e-11 
188 -1.05183e-11 -6.10688e-12 -3.28868e-11 
192 -6.34869e-12 -6.46863e-12 -1.50798e-11 
ITEM: TIMESTEP
13000
ITEM: NUMBER OF SURFS
192
ITEM: BOX BOUNDS oo rr rr
0 0.0005
0 0.0005
0 0.0005
ITEM: SURFS id f_f_drag_blocks[1] f_f_drag_blocks[2] f_f_drag_blocks[3] 
1 2.42806e-10 1.30213e-10 1.83026e-10 
5 2.59807e-10 1.60897e-10 6.75777e-11 
9 3.51768e-10 2.40486e-10 -7.58453e-11 
13 9.72132e-11 7.14302e-11 -8.03477e-11 
17 2.0535e-10 5.15013e-11 1.43091e-10 
21 5.99052e-10 1.09515e-10 1.3599e-10 
25 5.84168e-10 1.34083e-10 -1.20688e-10 
29 2.07197e-10 4.18447e-11 -1.47919e-10 
33 2.30153e-10 -4.77112e-11 1.30532e-10 
37 4.2761e-10 -1.09051e-10 8.27577e-11 
41 7.64235e-10 -1.90755e-10 -1.27279e-10 
45 3.43899e-10 -7.87557e-11 -2.29351e-10 
49 8.20079e-11 -4.87858e-11 4.3716e-11 
53 1.92055e-10 -1.13602e-10 2.23505e-11 
57 2.83609e-10 -1.9428e-10 -5.322e-11 
61 1.82329e-10 -1.2727e-10 -1.12117e-10 
65 4.05635e-11 5.7621e-11 3.62684e-11 
69 1.1498e-10 1.3586e-10 3.85391e-11 
73 1.19655e-10 1.5778e-10 -5.23998e-11 
77 1.06257e-10 1.33649e-10 -8.82746e-11 
81 2.59094e-11 8.90713e-11 5.09213e-11 
85 5.67584e-11 1.91658e-10 4.20944e-11 
89 5.22476e-11 1.91687e-10 -2.60747e-11 
93 2.01204e-11 6.74759e-11 -6.24124e-11 
97 -8.54704e-12 3.71777e-11 3.03868e-11 
101 -1.97247e-12 1.04949e-10 2.76846e-11 
105 -1.42689e-11 6.90299e-11 -1.41631e-11 
109 -1.00832e-12 6.40552e-11 -5.76303e-11 
113 -4.45061e-12 1.18698e-11 9.42603e-12 
117 -1.26679e-11 2.20664e-11 1.04687e-12 
121 -1.50355e-11 2.02342e-11 -6.22416e-12 
125 -9.32165e-12 1.7591e-11 -1.16728e-11 
129 2.3365e-11 3.81626e-11 4.91579e-11 
133 1.35539e-10 5.22653e-11 1.76176e-10 
137 2.41321e-10 -7.73481e-11 2.89456e-10 
141 1.53332e-10 -1.45855e-10 1.92221e-10 
145 3.93703e-11 5.37263e-11 1.0281e-10 
149 7.0127e-11 5.14391e-11 2.29346e-10 
153 7.26808e-11 -5.57124e-11 2.43637e-10 
157 4.09043e-11 -6.22634e-11 1.05057e-10 
161 5.31105e-12 4.62792e-11 7.62667e-11 
165 -8.92844e-12 8.79467e-12 9.54735e-11 
169 -2.06137e-11 -2.7395e-11 1.2875e-10 
173 -1.05156e-12 -3.24658e-11 3.9348e-11 
177 -7.96742e-12 1.11354e-11 1.70689e-11 
181 -9.31464e-12 7.66483e-12 2.16084e-11 
185 -1.38046e-11 -9.50415e-13 2.4741e-12 
189 -2.15027e-11 -1.68835e-11 2.69678e-11 
2 1.09618e-10 8.58106e-11 6.67104e-11 
6 2.32627e-10 1.63419e-10 5.62638e-11 
10 2.6254e-10 1.64893e-10 -4.87262e-11 
14 1.10941e-10 4.54914e-11 -4.79255e-11 
18 3.83145e-10 8.89663e-11 2.40137e-10 
22 5.80944e-10 1.50772e-10 1.00675e-10 
26 4.8069e-10 9.86254e-11 -9.28286e-11 
30 2.37223e-10 4.33325e-11 -1.54047e-10 
34 2.24519e-10 -4.84372e-11 1.69659e-10 
38 6.00528e-10 -1.38591e-10 1.24829e-10 
42 6.08471e-10 -1.26536e-10 -1.22499e-10 
46 1.65496e-10 -3.19275e-11 -1.14039e-10 
50 1.01878e-10 -7.00749e-11 9.05399e-11 
54 2.45321e-10 -1.68582e-10 4.52992e-11 
58 2.97854e-10 -1.86034e-10 -6.58418e-11 
62 1.40408e-10 -7.22161e-11 -8.4994e-11 
66 1.06201e-10 1.26099e-10 8.07592e-11 
70 1.54663e-10 2.02267e-10 4.29878e-11 
74 1.27427e-10 1.80499e-10 -3.81854e-11 
78 5.87385e-11 9.29863e-11 -6.18169e-11 
82 3.01978e-11 6.95795e-11 3.32657e-11 
86 6.48255e-11 2.06148e-10 4.11547e-11 
90 5.04321e-11 1.9309e-10 -2.40278e-11 
94 2.91692e-11 9.43821e-11 -4.86962e-11 
98 -1.49741e-11 4.54057e-11 3.15636e-11 
102 -3.66469e-11 1.6864e-10 3.47165e-11 
106 -9.09848e-12 9.75918e-11 -1.74077e-11 
110 -1.0549e-11 6.81074e-11 -4.28436e-11 
114 -1.55706e-11 1.95998e-11 2.00505e-11 
118 -1.16806e-11 2.63383e-11 4.98991e-12 
122 -1.37563e-11 2.03179e-11 -9.99344e-12 
126 -5.37361e-12 1.38507e-11 -6.94143e-12 
130 1.23004e-10 8.97731e-11 1.49382e-10 
134 8.19478e-11 1.90776e-11 1.12738e-10 
138 1.13341e-10 -3.60369e-11 1.7944e-10 
142 5.38874e-11 -5.31227e-11 7.39015e-11 
146 4.64315e-11 8.62593e-11 1.5682e-10 
150 3.80162e-11 2.16655e-11 1.37407e-10 
154 7.08513e-11 -7.69238e-11 2.07897e-10 
158 2.06061e-11 -4.00903e-11 6.04548e-11 
162 -1.74065e-12 6.19985e-11 6.94939e-11 
166 -1.40482e-11 3.48248e-11 1.38414e-10 
170 -8.62332e-12 -1.22697e-11 1.01848e-10 
174 -1.26733e-11 -3.04027e-11 4.73984e-11 
178 0 0 0 
182 -1.50094e-11 1.40049e-11 3.54517e-11 
186 -1.2555e-11 -1.00591e-11 2.81452e-11 
190 -1.27575e-12 -7.87438e-13 3.25011e-12 
3 -8.35502e-12 1.28876e-11 1.39796e-11 
7 -1.94756e-11 1.59683e-11 4.52197e-12 
11 -7.59847e-12 1.33605e-12 -3.39284e-12 
15 -1.35323e-11 1.22165e-11 -1.48191e-11 
19 0 0 0 
23 -3.69978e-12 6.29362e-13 8.70159e-13 
27 -1.27922e-11 7.50151e-12 -9.21694e-12 
31 -1.04622e-11 5.83336e-12 -1.21005e-11 
35 -7.31925e-12 1.32004e-12 4.60939e-12 
39 -9.75973e-12 -1.34364e-12 4.39896e-12 
43 -5.10401e-12 -3.73836e-12 -7.34738e-13 
47 -2.6317e-11 -1.01556e-11 -1.58858e-11 
51 -7.42847e-12 -5.03912e-12 5.72775e-12 
55 -1.17118e-11 -5.19912e-12 2.84087e-13 
59 -4.14157e-12 -1.71122e-12 -2.78567e-12 
63 -1.99001e-11 -2.91162e-11 -1.39294e-11 
67 6.92827e-11 -1.0373e-10 7.85971e-11 
71 1.20705e-10 -1.78237e-10 5.19147e-11 
75 1.03719e-10 -1.10277e-10 -2.15399e-11 
79 7.76442e-11 -9.60342e-11 -8.19281e-11 
83 1.74026e-11 -7.68329e-11 5.51988e-11 
87 3.67011e-11 -1.5487e-10 5.34581e-11 
91 7.14902e-11 -2.89115e-10 -6.37909e-11 
95 5.36712e-11 -9.70112e-11 -8.83929e-11 
99 -6.90593e-12 -6.4224e-11 4.76393e-11 
103 -2.95555e-11 -1.36452e-10 3.23468e-11 
107 -1.65027e-11 -1.03983e-10 -1.29168e-11 
111 -1.47416e-11 -8.02408e-11 -5.52229e-11 
115 -5.40388e-12 -2.27166e-11 1.08859e-11 
119 -1.40712e-11 -3.4375e-11 7.8633e-12 
123 -7.97759e-12 -1.05946e-11 8.84297e-13 
127 -2.35071e-11 -2.5773e-11 -1.52418e-11 
131 8.29201e-11 9.5259e-11 -9.73569e-11 
135 1.37814e-10 5.16649e-11 -1.8862e-10 
139 1.89572e-10 -5.30363e-11 -2.60748e-10 
143 6.9227e-11 -5.481e-11 -7.53627e-11 
147 3.20629e-11 6.60856e-11 -8.95669e-11 
151 5.71534e-11 4.55853e-11 -2.15986e-10 
155 7.64818e-11 -4.5513e-11 -2.24309e-10 
159 6.19632e-11 -1.32545e-10 -2.01196e-10 
163 -1.63777e-11 5.34166e-11 -8.40682e-11 
167 -1.03106e-11 1.77437e-11 -1.13025e-10 
171 -2.22237e-11 -9.47161e-12 -4.40567e-11 
175 2.04403e-12 -3.15479e-11 -4.70984e-11 
179 -3.85402e-12 7.37252e-12 -1.0164e-11 
183 -3.84544e-12 5.33623e-12 -1.49281e-11 
187 -1.15425e-11 -4.81342e-12 -1.10962e-11 
191 -3.05876e-12 -1.10488e-12 -2.96719e-12 
4 -9.58033e-12 6.79757e-12 4.76887e-12 
8 -3.67917e-12 1.14108e-11 3.37219e-12 
12 -1.39672e-11 8.45674e-12 -9.33243e-13 
16 -7.31401e-12 5.03718e-12 -4.59346e-12 
20 -1.56572e-11 6.95248e-12 1.63366e-11 
24 -9.29679e-12 2.53158e-12 6.74996e-13 
28 0 0 0 
32 -4.2969e-12 5.9713e-12 -3.04303e-12 
36 -5.47769e-11 -1.38482e-11 3.56148e-11 
40 -1.05829e-11 -9.63347e-13 3.0376e-12 
44 -1.03957e-11 1.278e-12 -1.08307e-12 
48 -6.04819e-12 -2.38322e-12 -2.68515e-12 
52 -2.08688e-11 -6.11543e-12 1.39438e-11 
56 -5.64054e-12 -4.257e-13 1.18905e-12 
60 -6.20813e-12 -9.33671e-12 -5.1724e-12 
64 -6.68892e-12 -6.73217e-12 -1.09938e-11 
68 8.23537e-11 -9.2758e-11 5.62829e-11 
72 1.20578e-10 -1.61206e-10 3.77016e-11 
76 8.56838e-11 -1.12533e-10 -1.09194e-11 
80 1.00191e-10 -1.49717e-10 -8.12232e-11 
84 3.22102e-11 -1.04382e-10 5.16445e-11 
88 5.66992e-11 -1.63644e-10 3.54505e-11 
92 5.03957e-11 -2.10038e-10 -4.30254e-11 
96 1.85775e-11 -5.32216e-11 -2.83509e-11 
100 -9.54396e-12 -2.97995e-11 1.94148e-11 
104 -7.42456e-12 -1.03763e-10 1.19922e-11 
108 -9.983e-13 -9.73411e-11 -2.71672e-11 
112 -1.30495e-11 -5.36608e-11 -4.20918e-11 
116 -1.07654e-11 -1.51259e-11 1.94496e-11 
120 -4.6858e-12 -1.08094e-11 -1.88154e-13 
124 -8.14485e-12 -9.90563e-12 -4.85216e-12 
128 -5.54029e-12 -1.72943e-11 -1.70866e-11 
132 4.37002e-11 4.58879e-11 -6.24128e-11 
136 1.15273e-10 2.72844e-11 -1.40317e-10 
140 1.019e-10 -3.00749e-11 -1.29819e-10 
144 3.05251e-11 -2.61054e-11 -5.68291e-11 
148 2.74715e-11 6.15164e-11 -1.03486e-10 
152 7.72298e-11 5.85699e-11 -2.65606e-10 
156 4.70954e-11 -4.80569e-11 -1.39359e-10 
160 1.71895e-11 -4.28934e-11 -8.24515e-11 
164 -4.93654e-12 3.6186e-11 -5.39875e-11 
168 -3.16476e-11 3.40439e-11 -1.25751e-10 
172 -1.29175e-11 -1.56866e-11 -7.5381e-11 
176 -4.5902e-12 -3.44659e-11 -4.27984e-11 
180 -8.72112e-12 1.31433e-11 -9.08414e-12 
184 -4.46468e-11 2.6188e-11 -4.93736e-11 
188 -2.70732e-11 -6.65937e-12 -2.4463e-11 
192 -4.46157e-12 -2.06492e-11 -2.2925e-11 
ITEM: TIMESTEP
14000
ITEM: NUMBER OF SURFS
192
ITEM: BOX BOUNDS oo rr rr
0 0.0005
0 0.0005
0 0.0005
ITEM: SURFS id f_f_drag_blocks[1] f_f_drag_blocks[2] f_f_drag_blocks[3] 
1 9.81337e-11 4.40108e-11 6.9271e-11 
5 2.59724e-10 1.38651e-10 5.73019e-11 
9 2.47057e-10 1.5956e-10 -6.36924e-11 
13 1.57189e-10 1.01544e-10 -1.24437e-10 
17 2.40963e-10 2.63187e-11 1.60399e-10 
21 6.09776e-10 1.22196e-10 1.54013e-10 
25 5.14631e-10 1.29493e-10 -1.14875e-10 
29 2.91206e-10 5.20136e-11 -2.15912e-10 
33 1.63321e-10 -3.52918e-11 1.01575e-10 
37 4.96903e-10 -1.25282e-10 7.74127e-11 
41 4.63652e-10 -1.07727e-10 -9.96361e-11 
45 2.96937e-10 -6.76113e-11 -1.83073e-10 
49 1.21995e-10 -6.69141e-11 7.00768e-11 
53 2.3309e-10 -1.49904e-10 4.31053e-11 
57 1.79409e-10 -1.15119e-10 -3.80337e-11 
61 1.5988e-10 -1.19228e-10 -1.07577e-10 
65 3.74991e-11 4.96143e-11 3.37017e-11 
69 6.2857e-11 9.49882e-11 2.40526e-11 
73 9.6064e-11 1.23593e-10 -2.98957e-11 
77 1.03375e-10 1.17872e-10 -9.89046e-11 
81 1.03757e-11 6.02314e-11 4.74683e-11 
85 5.52711e-11 1.87216e-10 5.0701e-11 
89 4.40039e-11 1.48067e-10 -3.01545e-11 
93 3.61482e-11 1.25918e-10 -8.93524e-11 
97 1.64861e-12 1.94732e-11 8.12519e-12 
101 -3.7946e-12 1.27851e-10 2.40775e-11 
105 -1.28964e-11 9.7225e-11 -1.46118e-11 
109 -5.40696e-12 3.90766e-11 -2.79723e-11 
113 0 0 0 
117 -5.43317e-12 5.51198e-12 1.64526e-12 
121 -1.5013e-11 2.88821e-11 -1.05164e-11 
125 -2.68022e-11 4.645e-11 -1.75662e-11 
129 8.06199e-11 8.05606e-11 9.80733e-11 
133 1.11082e-10 3.65802e-11 1.85081e-10 
137 1.58354e-10 -5.81083e-11 1.96443e-10 
141 5.16947e-11 -5.01339e-11 7.0653e-11 
145 1.59948e-11 6.65601e-11 1.01842e-10 
149 4.74296e-11 6.08678e-11 2.02571e-10 
153 7.89745e-11 -4.19167e-11 2.56987e-10 
157 4.51018e-11 -1.08998e-10 1.71895e-10 
161 -1.01916e-11 5.4466e-11 8.42853e-11 
165 -7.51942e-12 2.4564e-11 1.03702e-10 
169 -2.96772e-12 -2.03522e-11 1.0342e-10 
173 -2.54801e-11 -7.55585e-11 1.04352e-10 
177 -9.34414e-12 1.64508e-11 1.53589e-11 
181 -7.73383e-12 5.30328e-12 1.26884e-11 
185 -1.89255e-11 -5.32848e-12 2.33516e-11 
189 -1.32485e-11 -2.40254e-11 2.25497e-11 
2 1.59969e-10 1.0711e-10 7.55476e-11 
6 2.49452e-10 1.46289e-10 4.31662e-11 
10 2.48275e-10 1.59135e-10 -3.89289e-11 
14 9.18833e-11 3.8007e-11 -5.3887e-11 
18 2.79356e-10 5.48274e-11 1.64567e-10 
22 5.39441e-10 1.05557e-10 1.12405e-10 
26 3.84213e-10 7.62483e-11 -6.77918e-11 
30 1.89154e-10 3.33335e-11 -1.20839e-10 
34 2.87102e-10 -6.57912e-11 2.19332e-10 
38 4.68311e-10 -1.03602e-10 1.17754e-10 
42 6.38714e-10 -1.26283e-10 -1.47141e-10 
46 2.79127e-10 -4.9961e-11 -1.96838e-10 
50 1.30798e-10 -1.03229e-10 1.07407e-10 
54 3.12526e-10 -2.07578e-10 6.41178e-11 
58 3.02354e-10 -1.88176e-10 -8.05432e-11 
62 1.07418e-10 -7.46528e-11 -7.32358e-11 
66 1.33647e-10 1.4539e-10 9.89016e-11 
70 1.26713e-10 1.68469e-10 4.59877e-11 
74 9.08765e-11 1.42048e-10 -1.96308e-11 
78 2.27783e-11 3.56202e-11 -1.05933e-11 
82 3.6055e-11 9.00698e-11 5.48733e-11 
86 6.12783e-11 2.47886e-10 7.07504e-11 
90 5.79897e-11 1.86712e-10 -4.28427e-11 
94 2.70572e-11 7.66029e-11 -4.97838e-11 
98 -8.53955e-12 3.21116e-11 3.18341e-11 
102 -1.8496e-11 8.39901e-11 2.35362e-11 
106 -1.38368e-11 1.18831e-10 -3.31754e-11 
110 -7.19884e-12 5.83035e-11 -4.25365e-11 
114 -6.39175e-12 8.89394e-12 6.78387e-12 
118 -8.35332e-14 8.37637e-12 5.63949e-12 
122 -5.56924e-12 9.67237e-12 -1.9008e-12 
126 -1.33729e-11 1.66972e-11 -1.55666e-11 
130 8.94933e-11 7.17454e-11 9.94105e-11 
134 1.34133e-10 3.52516e-11 1.64542e-10 
138 8.28571e-11 -2.29479e-11 1.14067e-10 
142 4.53704e-11 -3.8788e-11 8.05719e-11 
146 2.48296e-11 6.55963e-11 8.33876e-11 
150 5.04223e-11 4.25459e-11 1.85604e-10 
154 2.9791e-11 -2.1697e-11 1.03531e-10 
158 1.65093e-11 -3.99798e-11 7.17623e-11 
162 -1.96696e-11 5.05376e-11 7.4791e-11 
166 -2.07622e-11 2.78351e-11 1.27536e-10 