ITEM: TIMESTEP
25000
ITEM: NUMBER OF SURFS
192
ITEM: BOX BOUNDS oo rr rr
0 0.0005
0 0.0005
0 0.0005
ITEM: SURFS id f_f_drag_blocks[1] f_f_drag_blocks[2] f_f_drag_blocks[3] 
1 0 0 0 
5 0 0 0 
9 0 0 0 
13 0 0 0 
17 0 0 0 
21 0 0 0 
25 0 0 0 
29 0 0 0 
33 0 0 0 
37 0 0 0 
41 0 0 0 
45 0 0 0 
49 0 0 0 
53 0 0 0 
57 0 0 0 
61 0 0 0 
65 0 0 0 
69 0 0 0 
73 0 0 0 
77 0 0 0 
81 0 0 0 
85 0 0 0 
89 0 0 0 
93 0 0 0 
97 0 0 0 
101 0 0 0 
105 0 0 0 
109 0 0 0 
113 0 0 0 
117 0 0 0 
121 0 0 0 
125 0 0 0 
129 0 0 0 
133 0 0 0 
137 0 0 0 
141 0 0 0 
145 0 0 0 
149 0 0 0 
153 0 0 0 
157 0 0 0 
161 0 0 0 
165 0 0 0 
169 0 0 0 
173 0 0 0 
177 0 0 0 
181 0 0 0 
185 0 0 0 
189 0 0 0 
2 0 0 0 
6 0 0 0 
10 0 0 0 
14 0 0 0 
18 0 0 0 
22 0 0 0 
26 0 0 0 
30 0 0 0 
34 0 0 0 
38 0 0 0 
42 0 0 0 
46 0 0 0 
50 0 0 0 
54 0 0 0 
58 0 0 0 
62 0 0 0 
66 0 0 0 
70 0 0 0 
74 0 0 0 
78 0 0 0 
82 0 0 0 
86 0 0 0 
90 0 0 0 
94 0 0 0 
98 0 0 0 
102 0 0 0 
106 0 0 0 
110 0 0 0 
114 0 0 0 
118 0 0 0 
122 0 0 0 
126 0 0 0 
130 0 0 0 
134 0 0 0 
138 0 0 0 
142 0 0 0 
146 0 0 0 
150 0 0 0 
154 0 0 0 
158 0 0 0 
162 0 0 0 
166 0 0 0 
170 0 0 0 
174 0 0 0 
178 0 0 0 
182 0 0 0 
186 0 0 0 
190 0 0 0 
3 0 0 0 
7 0 0 0 
11 0 0 0 
15 0 0 0 
19 0 0 0 
23 0 0 0 
27 0 0 0 
31 0 0 0 
35 0 0 0 
39 0 0 0 
43 0 0 0 
47 0 0 0 
51 0 0 0 
55 0 0 0 
59 0 0 0 
63 0 0 0 
67 0 0 0 
71 0 0 0 
75 0 0 0 
79 0 0 0 
83 0 0 0 
87 0 0 0 
91 0 0 0 
95 0 0 0 
99 0 0 0 
103 0 0 0 
107 0 0 0 
111 0 0 0 
115 0 0 0 
119 0 0 0 
123 0 0 0 
127 0 0 0 
131 0 0 0 
135 0 0 0 
139 0 0 0 
143 0 0 0 
147 0 0 0 
151 0 0 0 
155 0 0 0 
159 0 0 0 
163 0 0 0 
167 0 0 0 
171 0 0 0 
175 0 0 0 
179 0 0 0 
183 0 0 0 
187 0 0 0 
191 0 0 0 
4 0 0 0 
8 0 0 0 
12 0 0 0 
16 0 0 0 
20 0 0 0 
24 0 0 0 
28 0 0 0 
32 0 0 0 
36 0 0 0 
40 0 0 0 
44 0 0 0 
48 0 0 0 
52 0 0 0 
56 0 0 0 
60 0 0 0 
64 0 0 0 
68 0 0 0 
72 0 0 0 
76 0 0 0 
80 0 0 0 
84 0 0 0 
88 0 0 0 
92 0 0 0 
96 0 0 0 
100 0 0 0 
104 0 0 0 
108 0 0 0 
112 0 0 0 
116 0 0 0 
120 0 0 0 
124 0 0 0 
128 0 0 0 
132 0 0 0 
136 0 0 0 
140 0 0 0 
144 0 0 0 
148 0 0 0 
152 0 0 0 
156 0 0 0 
160 0 0 0 
164 0 0 0 
168 0 0 0 
172 0 0 0 
176 0 0 0 
180 0 0 0 
184 0 0 0 
188 0 0 0 
192 0 0 0 
ITEM: TIMESTEP
26000
ITEM: NUMBER OF SURFS
192
ITEM: BOX BOUNDS oo rr rr
0 0.0005
0 0.0005
0 0.0005
ITEM: SURFS id f_f_drag_blocks[1] f_f_drag_blocks[2] f_f_drag_blocks[3] 
1 1.77601e-10 1.13882e-10 1.35496e-10 
5 3.27039e-10 2.31216e-10 8.70727e-11 
9 4.93472e-10 3.32136e-10 -8.86094e-11 
13 1.42462e-10 1.36956e-10 -1.34415e-10 
17 2.04899e-10 3.00842e-11 1.74043e-10 
21 5.81231e-10 1.25535e-10 1.63693e-10 
25 3.86675e-10 9.98604e-11 -1.01068e-10 
29 4.2263e-10 1.21437e-10 -3.01818e-10 
33 2.27876e-10 -4.11766e-11 1.31339e-10 
37 5.7289e-10 -1.65106e-10 8.66024e-11 
41 6.69762e-10 -1.17555e-10 -1.70352e-10 
45 3.15135e-10 -5.96823e-11 -2.23824e-10 
49 2.30448e-10 -1.17112e-10 1.12562e-10 
53 1.27579e-10 -7.61498e-11 2.06632e-11 
57 3.659e-10 -2.26261e-10 -1.11293e-10 
61 1.69315e-10 -1.05913e-10 -1.02029e-10 
65 1.1289e-10 1.82321e-10 9.6778e-11 
69 7.92443e-11 1.08295e-10 2.38698e-11 
73 1.33659e-10 2.15246e-10 -3.75432e-11 
77 7.63824e-11 9.43219e-11 -6.44587e-11 
81 4.60176e-11 1.64704e-10 1.34155e-10 
85 1.10292e-10 2.49039e-10 8.17154e-11 
89 1.57656e-11 1.10035e-10 -3.17839e-11 
93 2.47407e-11 1.99138e-10 -1.19041e-10 
97 0 0 0 
101 -3.09847e-11 1.86346e-10 6.84101e-12 
105 -1.37686e-11 2.07191e-11 -5.36497e-12 
109 5.82351e-12 1.57382e-11 -8.86952e-12 
113 -1.7624e-11 3.53751e-11 1.06832e-11 
117 0 0 0 
121 -1.93381e-11 2.2477e-11 -1.71335e-11 
125 0 0 0 
129 4.26345e-11 3.21173e-11 7.15404e-11 
133 1.084e-10 2.05945e-11 1.64622e-10 
137 1.4292e-10 -8.1057e-11 2.07852e-10 
141 6.60765e-11 -4.17153e-11 7.00754e-11 
145 4.24477e-12 5.36343e-11 6.33073e-11 
149 2.43016e-11 5.10673e-11 1.4163e-10 
153 4.26882e-11 -1.77131e-11 1.41614e-10 
157 2.48559e-11 -6.17198e-11 6.44777e-11 
161 -2.55062e-11 7.94655e-11 8.45174e-11 
165 2.92768e-12 -5.72843e-13 1.10609e-10 
169 -9.71862e-12 -3.33293e-11 1.93194e-10 
173 -9.26029e-12 -3.07638e-11 5.35925e-11 
177 -1.07627e-11 1.39501e-11 1.02432e-11 
181 -2.41112e-11 3.55998e-12 5.08025e-11 
185 0 0 0 
189 0 0 0 
2 3.28337e-11 5.8255e-12 1.08677e-11 
6 3.11733e-10 1.99079e-10 2.24951e-11 
10 1.71503e-10 1.25398e-10 -6.11198e-11 
14 1.15579e-10 6.33415e-11 -6.18792e-11 
18 2.47175e-10 6.71531e-11 1.50367e-10 
22 4.38122e-10 1.24178e-10 6.96155e-11 
26 6.89264e-10 1.56778e-10 -1.28787e-10 
30 3.71489e-10 9.32138e-11 -2.33143e-10 
34 3.18048e-10 -6.40633e-11 1.86045e-10 
38 6.25211e-10 -9.52169e-11 1.62529e-10 
42 8.92894e-10 -1.88108e-10 -1.95855e-10 
46 1.65063e-10 -3.33304e-11 -8.92898e-11 
50 3.05632e-10 -2.52678e-10 2.05404e-10 
54 1.59122e-10 -9.17442e-11 6.17103e-11 
58 2.56634e-10 -1.74668e-10 -6.8757e-11 
62 9.95041e-11 -8.99533e-11 -8.78494e-11 
66 6.38799e-11 1.07923e-10 6.87638e-11 
70 1.13702e-10 1.17367e-10 4.19912e-11 
74 2.26656e-10 2.40218e-10 -6.91286e-11 
78 7.38718e-11 1.25918e-10 -6.48887e-11 
82 2.88087e-11 1.29745e-10 7.63075e-11 
86 9.68994e-11 1.99798e-10 4.09815e-11 
90 8.99459e-11 3.30898e-10 -5.60357e-11 
94 1.75519e-11 2.59896e-11 -2.52507e-11 
98 -1.06861e-11 5.84402e-11 3.22824e-11 
102 -6.28257e-12 1.50255e-10 6.46829e-11 
106 -1.67521e-11 1.63815e-10 -3.13308e-11 
110 -3.05041e-12 5.79008e-11 -3.7755e-11 
114 -1.49104e-11 2.66341e-11 1.63791e-11 
118 -1.82755e-11 1.52592e-11 -4.87414e-13 
122 0 0 0 
126 0 0 0 
130 0 0 0 
134 2.05391e-10 2.83123e-11 2.34209e-10 
138 6.63768e-11 -2.33195e-11 7.14939e-11 
142 9.22046e-12 -4.15909e-12 1.33404e-11 
146 3.70185e-11 9.355e-11 1.39425e-10 
150 8.44325e-11 5.11216e-11 2.29578e-10 
154 1.70483e-11 -2.83168e-12 7.35497e-11 
158 9.82905e-12 -4.37724e-11 6.41892e-11 
162 -3.16198e-11 1.05749e-10 1.50754e-10 
166 -1.12164e-11 6.59742e-12 5.87205e-11 
170 -1.04093e-11 -1.55644e-11 1.5985e-10 
174 0 0 0 
178 -3.06575e-11 -5.95322e-12 2.28736e-11 
182 0 0 0 
186 -5.66898e-12 6.1126e-12 1.20026e-11 
190 5.21767e-12 -9.43682e-12 9.55438e-12 
3 0 0 0 
7 0 0 0 
11 -1.16728e-11 3.07903e-11 -3.96686e-12 
15 0 0 0 
19 0 0 0 
23 0 0 0 
27 0 0 0 
31 0 0 0 
35 0 0 0 
39 0 0 0 
43 0 0 0 
47 0 0 0 
51 -4.14464e-11 -1.91045e-12 2.3856e-11 
55 0 0 0 
59 -1.01964e-11 -1.98579e-12 -2.64012e-12 
63 0 0 0 
67 6.89397e-11 -7.86864e-11 5.64297e-11 
71 1.02614e-10 -1.50045e-10 6.19916e-11 
75 2.23592e-10 -2.18218e-10 -3.50269e-11 
79 9.50905e-11 -1.14708e-10 -4.86793e-11 
83 5.56332e-12 -3.04127e-11 3.73463e-11 
87 4.39716e-11 -1.04055e-10 4.34039e-11 
91 2.98956e-11 -1.22554e-10 -3.63858e-11 
95 7.42959e-11 -2.08373e-10 -1.76699e-10 
99 0 0 0 
103 -6.46139e-12 -3.17042e-11 2.79398e-11 
107 -2.07757e-11 -1.76809e-10 -4.88664e-11 
111 -1.58228e-11 -5.27016e-11 -3.72227e-11 
115 -4.68348e-11 -1.08378e-10 4.79177e-11 
119 -1.26945e-11 -1.22269e-11 -3.7687e-12 
123 -7.03234e-12 -2.54801e-11 -1.75506e-11 
127 0 0 0 
131 4.74828e-11 6.58412e-11 -9.6528e-11 
135 1.64923e-10 3.19662e-11 -2.0515e-10 
139 3.13967e-10 -1.11493e-10 -3.54128e-10 
143 1.24297e-10 -1.19907e-10 -1.56063e-10 
147 4.19323e-11 5.26467e-11 -7.77749e-11 
151 6.42378e-11 3.18451e-11 -1.67584e-10 
155 5.2987e-11 -5.23645e-11 -1.30545e-10 
159 1.34835e-11 -5.59535e-11 -1.03663e-10 
163 3.11242e-12 2.05114e-11 -1.79653e-11 
167 0 0 0 
171 -1.77507e-11 3.36237e-11 -1.65149e-10 
175 -1.55998e-11 -8.03132e-11 -1.05017e-10 
179 -1.29682e-11 1.26925e-11 -2.33345e-12 
183 -4.28795e-11 -1.25821e-11 -6.08008e-11 
187 -2.57258e-11 -9.50073e-12 -2.98136e-11 
191 -5.03847e-12 -6.84137e-12 -1.66318e-11 
4 0 0 0 
8 -8.32195e-12 1.93694e-11 -1.58097e-11 
12 -2.3142e-11 4.23757e-11 4.64082e-12 
16 0 0 0 
20 0 0 0 
24 -2.89972e-11 7.13349e-12 5.25898e-12 
28 -2.32323e-11 1.57856e-11 -1.05476e-11 
32 0 0 0 
36 -9.96226e-12 -2.41521e-12 1.09025e-11 
40 0 0 0 
44 0 0 0 
48 -3.24262e-11 -1.97904e-11 -2.97711e-11 
52 -2.27031e-11 -1.32163e-11 1.05853e-11 
56 0 0 0 
60 -3.15258e-11 -3.77408e-11 -9.41159e-12 
64 -2.12784e-11 -2.84923e-11 -9.67318e-12 
68 7.04331e-11 -5.6664e-11 4.60901e-11 
72 1.12384e-10 -1.07244e-10 3.49048e-11 
76 1.28281e-10 -1.72656e-10 -2.30253e-11 
80 5.15709e-11 -1.19998e-10 -8.30038e-11 
84 6.4446e-12 -3.78735e-11 1.7643e-11 
88 4.98294e-11 -1.34204e-10 2.18437e-11 
92 8.19212e-11 -2.93996e-10 -4.85159e-11 
96 1.68916e-11 -7.88922e-11 -7.02658e-11 
100 -4.82447e-11 -2.09529e-10 1.26393e-10 
104 -1.1209e-11 -1.41969e-10 1.9191e-11 
108 7.82289e-12 -1.21451e-10 -1.75222e-11 
112 -7.76167e-12 -6.56457e-11 -3.19362e-11 
116 -1.42606e-11 -2.92174e-11 9.73444e-12 
120 -1.14285e-11 -2.16224e-12 6.38141e-12 
124 -1.03893e-11 -1.18016e-11 -3.3595e-12 
128 0 0 0 
132 1.78663e-10 1.33103e-10 -2.30067e-10 
136 1.28784e-10 4.57923e-11 -2.00822e-10 
140 1.38805e-10 -3.27897e-11 -1.92678e-10 
144 2.11366e-11 -2.42947e-11 -4.92433e-11 
148 3.33507e-11 1.15161e-10 -1.32748e-10 
152 3.9113e-11 2.47796e-11 -1.13889e-10 
156 8.33254e-11 -7.40713e-11 -2.95335e-10 
160 4.64669e-11 -1.44299e-10 -2.17676e-10 
164 -1.92099e-11 4.80343e-11 -9.67062e-11 
168 0 0 0 
172 -1.88004e-11 -1.94751e-11 -8.69948e-11 
176 -1.67221e-11 -8.85719e-11 -1.3846e-10 
180 -8.86124e-12 1.14429e-11 -1.13907e-11 
184 0 0 0 
188 0 0 0 
192 0 0 0 
ITEM: TIMESTEP
27000
ITEM: NUMBER OF SURFS
192
ITEM: BOX BOUNDS oo rr rr
0 0.0005
0 0.0005
0 0.0005
ITEM: SURFS id f_f_drag_blocks[1] f_f_drag_blocks[2] f_f_drag_blocks[3] 
1 2.13712e-10 9.84773e-11 1.70532e-10 
5 2.17077e-10 1.78408e-10 1.45159e-11 
9 1.45143e-10 8.88885e-11 -2.27238e-11 
13 1.17172e-10 1.25234e-10 -1.10947e-10 
17 1.99749e-10 3.31643e-11 1.82087e-10 
21 6.12692e-10 1.44355e-10 1.59887e-10 
25 6.51576e-10 1.0961e-10 -1.49598e-10 
29 1.07107e-10 3.13724e-11 -4.4632e-11 
33 2.43726e-10 -4.73482e-11 1.67533e-10 
37 4.84742e-10 -1.04248e-10 5.81303e-11 
41 4.96971e-10 -9.78381e-11 -9.7259e-11 
45 2.88854e-10 -7.66757e-11 -1.51217e-10 
49 4.95936e-11 -1.616e-11 2.44426e-11 
53 1.31747e-10 -7.93192e-11 2.98697e-11 
57 2.54531e-10 -2.15785e-10 -6.20761e-11 
61 1.00372e-10 -9.32303e-11 -6.43622e-11 
65 4.42458e-11 6.72599e-11 4.60065e-11 
69 8.42672e-11 8.36051e-11 2.06725e-11 
73 1.69019e-10 1.90629e-10 -9.3857e-11 
77 6.22342e-11 6.74555e-11 -5.91287e-11 
81 -8.96634e-12 1.12725e-10 5.33472e-11 
85 6.811e-11 1.5853e-10 1.25768e-11 
89 4.57701e-11 2.10199e-10 3.3293e-12 
93 3.29115e-11 1.67977e-10 -8.90413e-11 
97 -7.53795e-12 2.57322e-11 2.43664e-11 
101 -8.44263e-12 2.76352e-11 4.30844e-12 
105 -4.40569e-11 1.5234e-10 -6.04988e-12 
109 -1.67982e-11 6.63435e-11 -3.52883e-11 
113 -8.73692e-12 4.0523e-11 1.98258e-11 
117 1.13817e-11 1.67642e-11 6.88369e-12 
121 0 0 0 
125 -4.4516e-11 9.36032e-11 -6.94354e-11 
129 8.3153e-11 7.66464e-11 9.82105e-11 
133 1.47737e-10 6.06544e-11 2.13604e-10 
137 1.45031e-10 -6.49511e-11 1.28113e-10 
141 6.57041e-11 -6.11793e-11 5.89441e-11 
145 2.78109e-11 5.9297e-11 8.5758e-11 
149 7.8154e-11 1.07248e-10 2.1598e-10 
153 4.25901e-11 -1.19242e-11 1.81606e-10 
157 3.96833e-11 -7.60644e-11 8.1836e-11 
161 -2.69121e-11 4.70279e-11 6.69333e-11 
165 -2.6602e-11 4.27486e-11 1.09722e-10 
169 -5.21929e-11 -4.35995e-11 1.90067e-10 
173 3.07186e-12 -2.55833e-11 1.60973e-11 
177 -1.04346e-11 1.58421e-11 1.72356e-11 
181 -2.32944e-11 5.74391e-12 6.14813e-11 
185 -1.26863e-11 2.06662e-12 1.70433e-11 
189 -2.04191e-13 -1.77331e-11 5.61985e-12 
2 4.00841e-11 5.69851e-12 1.03305e-11 
6 3.24481e-10 1.93568e-10 7.98633e-11 
10 2.58257e-10 2.0035e-10 -7.29927e-12 
14 9.30852e-11 5.9158e-11 -6.65605e-11 
18 3.04564e-10 8.14765e-11 2.10546e-10 
22 6.37027e-10 1.53761e-10 1.71794e-10 
26 5.55838e-10 1.15132e-10 -1.10335e-10 
30 4.09993e-10 1.0692e-10 -2.39389e-10 
34 2.33235e-10 -4.55913e-11 1.56885e-10 
38 6.76386e-10 -1.10743e-10 1.35401e-10 
42 4.66922e-10 -1.061e-10 -1.10914e-10 
46 4.06965e-10 -4.78843e-11 -2.44055e-10 
50 8.17868e-11 -6.35709e-11 9.15842e-11 
54 1.23172e-10 -9.45612e-11 3.6617e-11 
58 1.44665e-10 -9.61684e-11 -4.71384e-11 
62 1.79129e-10 -1.22609e-10 -1.50344e-10 
66 1.27712e-10 1.39061e-10 8.87062e-11 
70 2.05303e-10 2.89593e-10 7.29325e-11 
74 1.20727e-10 1.83237e-10 -5.90907e-12 
78 6.90594e-11 5.93775e-11 -2.75089e-11 
82 1.49604e-11 5.00927e-11 2.4334e-11 
86 4.85355e-11 1.87463e-10 4.51786e-11 
90 8.84302e-11 2.77772e-10 -8.47822e-11 
94 0 0 0 
98 -7.21421e-12 2.03721e-11 1.07722e-11 
102 -3.04551e-11 1.35629e-10 2.90727e-11 
106 -3.89928e-11 7.75774e-11 7.02118e-13 
110 6.81775e-12 1.51859e-11 -9.32763e-12 
114 -2.26928e-11 1.60312e-11 1.38788e-11 
118 -6.42597e-12 2.07984e-11 -3.87118e-12 
122 -2.62795e-12 2.0572e-11 -3.21379e-12 
126 3.28301e-14 1.52057e-11 -1.23594e-11 
130 6.69136e-11 1.69131e-11 6.74629e-11 
134 7.27652e-11 1.34686e-11 5.30493e-11 
138 1.06106e-10 -2.89021e-11 1.50257e-10 
142 2.59112e-11 -1.64276e-11 1.47136e-11 
146 5.37344e-11 2.47048e-11 7.55713e-11 
150 9.68724e-11 6.82318e-11 2.93125e-10 
154 2.53545e-11 -2.83202e-11 1.28274e-10 
158 1.61384e-11 -4.79382e-11 4.15816e-11 
162 0 0 0 
166 -1.77421e-11 5.65982e-11 9.81846e-11 
170 2.60748e-12 -3.42238e-11 9.69502e-11 
174 4.60456e-12 -5.51442e-11 5.10874e-11 
178 0 0 0 
182 0 0 0 
186 -1.81806e-11 2.26298e-11 4.76778e-11 
190 7.06481e-12 -1.64246e-12 3.06093e-11 
3 0 0 0 
7 0 0 0 
11 0 0 0 
15 -1.45659e-11 1.44405e-11 -9.34148e-12 
19 -3.8124e-11 1.37795e-11 1.07018e-11 
23 -3.90004e-11 3.00278e-11 1.27676e-11 
27 0 0 0 
31 -7.26415e-12 8.81894e-12 -8.51336e-12 
35 -4.12356e-11 -3.39954e-12 3.05696e-11 
39 -1.82393e-11 -9.31383e-13 1.5654e-11 
43 0 0 0 
47 -4.63302e-11 -1.94452e-12 -3.12232e-11 
51 0 0 0 
55 -1.49041e-11 -1.68019e-11 5.91824e-12 
59 0 0 0 
63 -7.97537e-12 -4.11046e-12 -1.00509e-11 
67 9.85752e-11 -1.23973e-10 7.39234e-11 
71 6.01389e-11 -7.38411e-11 2.11528e-11 
75 1.29084e-10 -1.4366e-10 -6.26218e-12 
79 8.03579e-11 -1.38825e-10 -9.95835e-11 
83 1.29643e-11 -5.15488e-11 2.46882e-11 
87 2.33893e-11 -1.71483e-10 2.86684e-11 
91 3.92506e-11 -1.27704e-10 -4.01571e-11 
95 2.86414e-11 -9.59847e-11 -4.86652e-11 
99 -2.17588e-12 -3.04642e-11 2.29806e-11 
103 -1.68953e-11 -6.21372e-11 3.78161e-11 
107 -5.2949e-12 -1.39592e-10 -3.08701e-11 
111 0 0 0 
115 0 0 0 
119 -1.45648e-11 -1.88251e-11 -3.79911e-12 
123 -7.20259e-11 -8.81036e-11 -6.61816e-12 
127 -2.05097e-11 -5.17623e-12 -2.4354e-11 
131 5.23961e-11 7.67047e-11 -8.58658e-11 
135 1.48265e-10 4.98758e-11 -1.95444e-10 
139 1.31022e-10 -9.07911e-11 -1.54178e-10 
143 5.57935e-11 -3.73333e-11 -6.39019e-11 
147 2.33537e-11 6.71249e-11 -8.74291e-11 
151 5.5394e-11 5.74846e-11 -2.30489e-10 
155 4.97201e-11 -5.82672e-11 -9.5696e-11 
159 3.66008e-11 -8.79025e-11 -9.53137e-11 
163 -6.7647e-12 3.63034e-11 -6.04876e-11 
167 -1.85105e-11 5.05899e-11 -1.35291e-10 
171 -4.35029e-12 -3.4509e-11 -7.26626e-11 
175 7.06916e-14 -1.81655e-11 -6.77778e-12 
179 0 0 0 
183 0 0 0 
187 -9.49061e-12 -1.18917e-12 -2.04335e-11 
191 0 0 0 
4 -2.54717e-11 4.71416e-11 2.15112e-11 
8 0 0 0 
12 0 0 0 
16 0 0 0 
20 -1.37511e-11 -2.63936e-12 1.34134e-11 
24 0 0 0 
28 -5.22802e-12 2.33077e-12 -4.03074e-12 
32 -3.99375e-11 1.37142e-11 -4.18999e-11 
36 0 0 0 
40 -2.45259e-11 -1.58332e-11 5.16305e-12 
44 -1.38172e-11 -6.16865e-12 -7.80093e-12 
48 0 0 0 
52 -2.60408e-11 -1.69821e-11 1.6467e-11 
56 -3.5732e-11 -2.7379e-11 2.42405e-11 
60 0 0 0 
64 0 0 0 
68 9.12874e-11 -1.03098e-10 5.08928e-11 
72 6.84253e-11 -9.82703e-11 2.53711e-11 
76 1.09318e-10 -1.68656e-10 -2.88744e-11 
80 9.10752e-12 -1.60498e-11 -5.44212e-12 
84 8.60582e-12 -4.71545e-11 3.91692e-11 
88 5.60822e-11 -2.2634e-10 5.94092e-11 
92 1.13445e-10 -2.31578e-10 -7.48128e-11 
96 -7.17485e-12 -3.57646e-11 -1.01935e-11 
100 0 0 0 
104 -6.17442e-12 -9.7305e-11 3.87832e-11 
108 -1.50479e-11 -7.27444e-11 6.45894e-12 
112 -2.0818e-11 -9.66731e-11 -7.40953e-11 
116 -8.88991e-12 -2.46992e-11 2.46025e-11 
120 -1.18101e-11 -2.35803e-11 -6.86479e-12 
124 -1.12933e-11 -3.01888e-11 8.05935e-12 
128 0 0 0 
132 6.86812e-11 9.70861e-11 -9.76443e-11 
136 1.61452e-10 3.56242e-11 -1.43542e-10 
140 1.06574e-10 -6.15666e-11 -1.42467e-10 
144 2.00199e-11 -1.00892e-11 -1.28362e-11 
148 4.67537e-11 8.47655e-11 -1.24492e-10 
152 1.07141e-10 5.65928e-11 -2.82611e-10 
156 4.28048e-11 -4.85359e-11 -1.71948e-10 
160 1.60483e-11 -1.64346e-11 -1.58137e-11 
164 -1.24597e-11 7.98518e-11 -8.14717e-11 
168 -3.95955e-11 1.12333e-11 -7.53833e-11 
172 -1.27689e-11 -3.88071e-11 -6.43202e-11 
176 -1.48617e-11 -1.10312e-11 -9.49941e-12 
180 -1.34579e-11 9.1647e-12 -2.02134e-11 
184 -1.16688e-11 1.49348e-11 -4.99043e-12 
188 0 0 0 
192 -3.20061e-11 -4.34427e-11 -4.06345e-11 
ITEM: TIMESTEP
28000
ITEM: NUMBER OF SURFS
192
ITEM: BOX BOUNDS oo rr rr
0 0.0005
0 0.0005
0 0.0005
ITEM: SURFS id f_f_drag_blocks[1] f_f_drag_blocks[2] f_f_drag_blocks[3] 
1 1.05855e-10 6.46694e-11 1.03289e-10 
5 3.06042e-10 1.62744e-10 5.21979e-11 
9 3.44956e-10 2.31564e-10 -1.10389e-10 
13 1.87417e-10 1.3915e-10 -1.42691e-10 
17 1.27558e-10 4.18317e-11 7.16514e-11 
21 2.66993e-10 5.16339e-11 7.8574e-11 
25 5.01869e-10 7.6513e-11 -9.81982e-11 
29 3.04364e-10 6.67825e-11 -1.33134e-10 
33 1.19249e-10 -2.23329e-11 6.77222e-11 
37 4.04629e-10 -6.12586e-11 1.08273e-10 
41 7.07691e-10 -1.19737e-10 -1.01241e-10 
45 3.30419e-10 -6.77967e-11 -1.8355e-10 
49 1.48776e-10 -9.71007e-11 1.01285e-10 
53 2.18403e-10 -1.15466e-10 4.66033e-11 
57 2.2072e-10 -1.84332e-10 -6.58072e-11 
61 9.16054e-11 -4.33358e-11 -4.2083e-11 
65 2.63482e-11 3.90454e-11 4.18712e-11 
69 1.48892e-10 1.91921e-10 -8.09198e-12 
73 2.26755e-10 2.14846e-10 -2.98496e-11 
77 9.7752e-11 8.91169e-11 -9.71223e-11 
81 0 0 0 
85 2.62328e-11 8.30685e-11 1.5227e-11 
89 1.1265e-10 2.49285e-10 -8.83362e-11 
93 2.80491e-11 1.1399e-10 -8.03764e-11 
97 -6.71858e-12 1.47689e-11 1.11432e-11 
101 -3.52791e-11 1.15657e-10 2.60214e-11 
105 -1.52169e-11 1.6989e-11 -1.30962e-11 
109 -2.29496e-12 2.30409e-11 -2.359e-11 
113 0 0 0 
117 1.33981e-11 1.18756e-11 1.15689e-13 
121 -1.11593e-11 1.12067e-11 -6.35342e-12 
125 0 0 0 
129 6.15209e-11 1.05813e-10 1.28279e-10 
133 1.78498e-10 8.655e-11 2.09453e-10 
137 1.10503e-10 -3.63639e-11 1.16597e-10 
141 1.01578e-10 -7.54354e-11 9.27449e-11 
145 3.64819e-11 5.55744e-11 7.06792e-11 
149 7.23336e-11 4.63727e-11 1.57031e-10 
153 6.92579e-11 -7.8142e-11 2.36714e-10 
157 3.58663e-11 -5.00714e-11 7.7436e-11 
161 1.96407e-12 2.82184e-11 3.54644e-11 
165 1.50056e-11 1.74538e-11 8.5485e-11 
169 -1.93348e-11 3.32947e-11 3.86007e-11 
173 -8.10091e-12 -2.9111e-11 4.51929e-11 
177 -5.93918e-13 2.58941e-11 3.07481e-11 
181 -2.93425e-11 5.53057e-13 2.6914e-11 
185 0 0 0 
189 0 0 0 
2 1.4243e-10 9.47009e-11 1.14492e-10 
6 1.1915e-10 7.4596e-11 1.355e-11 
10 1.16427e-10 5.77037e-11 -5.27621e-11 
14 1.87834e-10 6.2489e-11 -7.78988e-11 
18 3.3833e-10 9.80702e-11 2.21052e-10 
22 4.98012e-10 1.22817e-10 1.05925e-10 
26 4.5594e-10 9.91996e-11 -9.45061e-11 
30 1.27572e-10 2.59504e-11 -6.84122e-11 
34 2.39203e-10 -4.10468e-11 1.53896e-10 
38 5.85488e-10 -1.25662e-10 1.82425e-10 
42 7.13752e-10 -1.91608e-10 -1.24876e-10 
46 1.61172e-10 -3.43901e-11 -1.13676e-10 
50 1.99125e-10 -1.33149e-10 1.39696e-10 
54 2.53333e-10 -1.56234e-10 5.50303e-11 
58 2.03315e-10 -1.49356e-10 -3.11232e-11 
62 1.35686e-10 -8.03669e-11 -7.50613e-11 
66 9.49776e-11 8.32701e-11 6.7958e-11 
70 1.44309e-10 1.68771e-10 1.52483e-11 
74 8.90096e-11 1.79511e-10 -3.58611e-11 
78 5.62402e-11 7.97707e-11 -4.68864e-11 
82 -4.24496e-12 3.37561e-11 2.28838e-11 
86 7.78336e-11 2.44077e-10 3.83471e-11 
90 5.80162e-11 3.19806e-10 -8.93118e-11 
94 7.68845e-11 2.07677e-10 -1.29105e-10 
98 0 0 0 
102 -1.12408e-11 8.7458e-11 2.24573e-11 
106 -2.04414e-11 8.22303e-11 -1.92952e-11 
110 -3.06499e-11 4.23757e-11 -6.52062e-12 
114 -2.03649e-11 2.5342e-11 4.90467e-12 
118 -2.03241e-11 2.71876e-11 -5.63409e-12 
122 -3.69956e-12 2.08344e-11 2.86378e-12 
126 -2.45335e-11 4.00535e-11 -7.95514e-12 
130 8.13394e-11 5.32534e-11 5.09302e-11 
134 1.21339e-10 4.53807e-11 1.35451e-10 
138 1.61517e-10 -5.39238e-11 2.52166e-10 
142 6.41756e-11 -3.32618e-11 7.39092e-11 
146 5.33183e-11 1.02483e-10 1.86397e-10 
150 4.26703e-11 5.87365e-11 2.7592e-10 
154 5.48561e-11 -6.91195e-12 2.07055e-10 
158 0 0 0 
162 9.40686e-12 3.83707e-11 5.28847e-11 
166 -3.46022e-12 -5.12727e-13 2.42839e-11 
170 -1.8377e-11 -2.13497e-11 7.81122e-11 
174 -3.82708e-12 -6.09929e-12 1.66207e-11 
178 0 0 0 
182 -1.29664e-11 8.93973e-12 6.88787e-12 
186 -3.07014e-11 -1.35083e-11 5.06993e-11 
190 0 0 0 
3 0 0 0 
7 0 0 0 
11 0 0 0 
15 0 0 0 
19 -1.4426e-11 1.0982e-11 2.40541e-11 
23 -2.35607e-11 3.15751e-12 6.25786e-12 
27 -1.20418e-11 6.53107e-12 -5.69434e-12 
31 0 0 0 
35 0 0 0 
39 0 0 0 
43 -1.77059e-11 3.89122e-12 -9.20709e-12 
47 -7.07626e-12 -1.39e-11 -6.19711e-12 
51 -1.14948e-11 -2.89071e-12 1.27934e-11 
55 -3.18839e-11 -9.12606e-13 -2.16796e-11 
59 2.16202e-12 -1.85737e-11 5.8861e-12 
63 0 0 0 
67 5.16267e-11 -4.76597e-11 5.59411e-11 
71 4.87719e-11 -8.39354e-11 1.55743e-11 
75 1.32958e-10 -2.29786e-10 -4.20459e-11 
79 1.58079e-10 -2.20373e-10 -1.734e-10 
83 6.01671e-11 -1.2904e-10 8.6481e-11 
87 6.80697e-11 -1.61112e-10 3.43822e-11 
91 8.665e-11 -2.98155e-10 -5.52104e-11 
95 9.36366e-13 -5.02421e-11 -4.80158e-11 
99 -4.76631e-11 -1.5724e-10 1.06238e-10 
103 -2.48906e-12 -1.089e-10 2.54115e-11 
107 -5.61793e-11 -1.25461e-10 -3.22697e-13 
111 0 0 0 
115 -2.27275e-11 -4.13961e-11 3.13979e-11 
119 -1.16355e-11 -2.84233e-11 7.32683e-12 
123 0 0 0 
127 0 0 0 
131 9.31568e-11 8.94853e-11 -1.60036e-10 
135 7.26011e-11 3.98583e-11 -1.42981e-10 
139 1.26192e-10 -4.65695e-11 -1.94998e-10 
143 1.04679e-11 -2.38916e-11 -1.49435e-11 
147 5.80937e-12 3.80711e-11 -5.02662e-11 
151 5.74551e-11 7.58485e-11 -2.72589e-10 
155 4.23136e-11 -5.50883e-11 -2.49034e-10 
159 7.04166e-11 -8.76868e-11 -1.67147e-10 
163 -1.88244e-11 8.62456e-11 -1.76442e-10 
167 -1.54865e-11 1.63528e-11 -9.71049e-11 
171 -5.40746e-12 -7.9654e-12 -9.70236e-11 
175 3.69181e-13 -2.91703e-11 -2.98635e-11 
179 -4.85061e-12 2.1781e-11 -1.71524e-11 
183 0 0 0 
187 -1.92823e-11 -1.4302e-11 -4.28247e-11 
191 2.65818e-12 -1.17888e-11 -2.43281e-11 
4 -3.48837e-12 1.36064e-11 1.17057e-11 
8 0 0 0 
12 0 0 0 
16 -3.02524e-11 1.38782e-11 -6.18552e-12 
20 -1.40526e-11 -4.74104e-15 1.91902e-11 
24 0 0 0 
28 0 0 0 
32 -1.90881e-11 1.74575e-11 -2.52553e-11 
36 0 0 0 
40 0 0 0 
44 -4.76636e-11 -1.47403e-11 1.07031e-11 
48 0 0 0 
52 -6.12167e-11 -5.27568e-11 2.89246e-11 
56 0 0 0 
60 -6.16794e-11 -1.84692e-11 -1.46507e-11 
64 -2.22457e-11 -1.23823e-11 -2.02878e-11 
68 8.84054e-11 -1.32994e-10 1.01466e-10 
72 2.39305e-10 -3.04278e-10 3.92065e-11 
76 4.32189e-11 -9.0112e-11 -2.67532e-11 
80 1.1184e-11 -2.46844e-11 -8.4981e-12 
84 3.86437e-11 -1.10729e-10 5.78708e-11 
88 9.72691e-11 -2.33338e-10 3.4324e-11 
92 3.99549e-11 -1.73691e-10 -5.51943e-12 
96 -1.1104e-11 -2.761e-11 -2.56129e-11 
100 1.06727e-11 -4.99419e-11 2.76294e-11 
104 -2.3187e-11 -1.35192e-10 2.27281e-11 
108 -8.64927e-12 -5.64981e-11 -1.29193e-11 
112 -1.6515e-11 -9.73152e-11 -5.31387e-11 
116 0 0 0 
120 0 0 0 
124 -3.89229e-12 -3.24963e-11 -4.10674e-12 
128 0 0 0 
132 1.6006e-10 1.31901e-10 -1.65528e-10 
136 1.42103e-10 3.70104e-11 -1.48828e-10 
140 4.14987e-11 -1.93039e-11 -5.44179e-11 
144 1.67105e-11 -2.46402e-11 -3.3825e-11 
148 5.20848e-11 5.65303e-11 -1.24598e-10 
152 1.31432e-10 6.35917e-11 -3.05358e-10 
156 6.19256e-11 -6.69495e-11 -3.29006e-10 
160 1.27823e-11 -7.20154e-11 -9.79979e-11 
164 0 0 0 
168 -1.9711e-11 2.95171e-11 -8.27111e-11 
172 -2.46845e-11 -4.94578e-11 -2.25413e-10 
176 -1.9636e-12 -1.97191e-11 -2.00003e-11 
180 -1.46706e-11 2.37303e-11 -4.05016e-12 
184 -2.21706e-12 6.85216e-12 -1.33745e-11 
188 0 0 0 
192 -3.65472e-11 -4.92267e-11 -4.62244e-11 
ITEM: TIMESTEP
29000
ITEM: NUMBER OF SURFS
192
ITEM: BOX BOUNDS oo rr rr
0 0.0005
0 0.0005
0 0.0005
ITEM: SURFS id f_f_drag_blocks[1] f_f_drag_blocks[2] f_f_drag_blocks[3] 
1 1.16361e-10 4.9767e-11 7.13209e-11 
5 3.13988e-10 2.00277e-10 7.09532e-11 
9 1.98279e-10 1.40359e-10 -3.62192e-11 
13 1.21174e-10 8.82943e-11 -1.00934e-10 
17 1.3977e-10 4.72631e-11 8.4467e-11 
21 4.49703e-10 9.85066e-11 1.09944e-10 
25 5.70152e-10 1.38482e-10 -1.1437e-10 
29 1.4751e-10 4.33749e-11 -1.03267e-10 
33 1.43593e-10 -2.48664e-11 6.6485e-11 
37 5.60337e-10 -1.1097e-10 8.63571e-11 
41 5.25872e-10 -6.32462e-11 -1.56292e-10 
45 3.42528e-10 -9.25615e-11 -2.47713e-10 
49 2.54207e-10 -1.16911e-10 1.48264e-10 
53 1.71773e-10 -6.90544e-11 5.8691e-11 
57 2.35607e-10 -2.0821e-10 -7.48008e-11 
61 1.9451e-10 -1.56813e-10 -8.94896e-11 
65 1.73781e-11 5.19893e-11 4.35025e-11 
69 8.03082e-11 1.52251e-10 1.90618e-11 
73 5.54313e-11 9.46898e-11 -2.69383e-11 
77 4.08079e-11 3.62801e-11 -2.06291e-11 
81 4.41108e-12 3.9862e-11 2.46719e-11 
85 4.73091e-11 2.97355e-10 7.67804e-11 
89 3.89721e-11 1.35168e-10 -3.11478e-11 
93 4.43611e-11 1.25182e-10 -1.06569e-10 
97 -9.18423e-12 4.65765e-11 4.05138e-11 
101 -4.47611e-11 2.14075e-10 5.67144e-11 
105 -1.72439e-11 4.3673e-11 -1.85333e-11 
109 1.75087e-11 5.9891e-11 -6.89255e-11 
113 -2.58012e-12 1.1383e-11 7.72184e-12 
117 -1.43337e-11 6.11636e-11 2.74721e-11 
121 0 0 0 
125 -1.85744e-11 3.18656e-12 1.70981e-13 
129 5.12565e-11 3.77032e-11 6.70928e-11 
133 6.21269e-11 2.53402e-11 7.0819e-11 
137 6.14819e-11 -1.96531e-11 9.12449e-11 
141 7.09463e-11 -6.28321e-11 5.50151e-11 
145 3.28273e-11 1.1723e-10 1.57705e-10 
149 4.8274e-11 5.27772e-11 2.21949e-10 
153 9.59593e-11 -8.63988e-11 4.03536e-10 
157 2.72302e-12 -7.70157e-12 4.17913e-12 
161 -1.13843e-12 2.82266e-11 8.55219e-11 
165 2.04781e-12 -6.91115e-12 3.7537e-11 
169 0 0 0 
173 -8.29766e-12 -5.15229e-11 6.27869e-11 
177 -1.04137e-11 1.40805e-11 9.48339e-12 
181 -4.49861e-11 4.25126e-11 1.00862e-10 
185 0 0 0 
189 0 0 0 
2 1.5417e-10 1.12443e-10 7.8186e-11 
6 2.73386e-10 1.71874e-10 4.99458e-11 
10 3.36675e-10 2.12451e-10 -6.0506e-11 
14 2.41052e-10 1.16128e-10 -1.27539e-10 
18 2.46993e-10 7.86169e-11 1.69189e-10 
22 4.7604e-10 1.0905e-10 7.9496e-11 
26 4.5559e-10 9.80356e-11 -1.51947e-10 
30 3.2368e-10 6.16599e-11 -1.78258e-10 
34 2.95293e-10 -6.80101e-11 1.79007e-10 
38 6.59179e-10 -1.23815e-10 1.41607e-10 
42 4.14542e-10 -9.83592e-11 -7.31865e-11 
46 1.25844e-10 -7.76942e-12 -1.13706e-10 
50 1.7132e-10 -1.4251e-10 1.42046e-10 
54 3.76066e-10 -2.54175e-10 9.65234e-11 
58 4.94888e-10 -3.24188e-10 -1.06621e-10 
62 4.72548e-11 -4.92833e-11 -3.38903e-11 
66 8.44772e-11 6.56649e-11 7.18849e-11 
70 6.56565e-11 7.74033e-11 2.70884e-11 
74 9.31965e-11 1.14411e-10 -5.57543e-11 
78 2.78093e-11 5.79118e-11 -2.699e-11 
82 6.86131e-11 2.68336e-10 1.38285e-10 
86 4.35701e-11 1.32638e-10 3.258e-11 
90 3.90325e-11 1.07034e-10 -6.79501e-12 
94 9.77485e-12 9.16909e-11 -8.68434e-11 
98 -1.82231e-11 2.91815e-11 1.80077e-11 
102 -5.54046e-12 2.46578e-11 4.71205e-12 
106 -1.59904e-11 6.92171e-11 -4.04627e-11 
110 5.58892e-12 1.24335e-11 -1.05799e-11 
114 -2.62373e-11 1.03654e-11 3.62639e-11 
118 -1.74449e-11 1.92444e-11 2.25227e-12 
122 -2.44271e-11 2.26463e-11 -7.8106e-12 
126 0 0 0 
130 6.12204e-11 6.42946e-11 6.58158e-11 
134 1.1737e-10 4.19072e-11 1.89657e-10 
138 8.52862e-11 -2.87051e-11 1.08727e-10 
142 7.84712e-11 -1.35912e-10 1.90557e-10 
146 0 0 0 
150 4.56992e-11 4.33706e-11 2.07029e-10 
154 7.1143e-11 -6.77696e-12 3.05622e-10 
158 1.92633e-12 -1.75574e-11 4.18773e-11 
162 -1.44886e-11 6.69902e-11 9.30942e-11 
166 -1.8624e-11 2.36039e-11 8.10791e-11 
170 5.59569e-12 1.65995e-12 4.03358e-11 
174 -2.89251e-11 -6.37882e-11 1.25829e-10 
178 -1.41505e-11 5.40328e-12 2.97754e-11 
182 -2.98485e-11 7.73621e-12 3.30352e-11 
186 -8.79159e-12 1.61365e-12 2.21715e-11 
190 1.73466e-12 -8.67001e-12 8.69706e-12 
3 0 0 0 
7 -7.33258e-12 1.5698e-11 2.19934e-12 
11 0 0 0 
15 0 0 0 
19 0 0 0 
23 -1.16901e-11 -1.24072e-11 6.47995e-12 
27 0 0 0 
31 -4.58344e-11 1.17489e-11 -2.71873e-11 
35 0 0 0 
39 0 0 0 
43 -1.2275e-11 -1.17265e-11 1.11195e-11 
47 0 0 0 
51 0 0 0 
55 -3.26358e-11 -1.60409e-11 -1.93001e-13 
59 -3.75048e-11 -2.9665e-11 3.23074e-12 
63 0 0 0 
67 1.02753e-10 -1.42047e-10 8.55925e-11 
71 1.63868e-10 -1.96437e-10 7.37329e-11 
75 1.36025e-10 -1.63836e-10 -1.93775e-11 
79 5.10131e-11 -6.08813e-11 -6.54506e-11 
83 6.95259e-11 -1.88478e-10 9.91109e-11 
87 5.97494e-11 -2.41119e-10 4.56099e-11 
91 1.19014e-11 -1.61669e-10 -5.01377e-11 
95 5.41938e-11 -2.06127e-10 -1.28437e-10 
99 0 0 0 
103 2.82947e-13 -7.16143e-11 1.38267e-11 
107 -7.61145e-12 -4.39207e-11 -1.32989e-11 
111 -8.76496e-12 -1.26335e-11 -1.01466e-11 
115 7.05617e-12 -4.93488e-12 1.13417e-11 
119 0 0 0 
123 0 0 0 
127 0 0 0 
131 1.16117e-10 1.17232e-10 -1.23792e-10 
135 1.81587e-10 7.52e-11 -2.56098e-10 
139 6.01967e-11 2.92565e-13 -8.23199e-11 
143 1.17822e-10 -1.03812e-10 -1.39207e-10 
147 8.89135e-12 6.09159e-11 -7.28118e-11 
151 3.60906e-11 3.81585e-11 -1.69441e-10 
155 2.05455e-11 -2.49957e-11 -8.12363e-11 
159 1.98911e-11 -5.82334e-11 -6.55165e-11 
163 -3.24048e-11 8.60482e-11 -1.06398e-10 
167 1.46657e-13 1.34269e-11 -5.64047e-11 
171 -1.15681e-11 -2.84746e-11 -1.24703e-10 
175 -1.01378e-12 -1.78453e-11 -3.73311e-11 
179 -4.37651e-11 5.22927e-11 -6.32446e-11 
183 -7.24736e-12 -1.15115e-12 -1.36536e-11 
187 0 0 0 
191 0 0 0 
4 0 0 0 
8 -9.17563e-12 2.60339e-11 6.09165e-12 
12 0 0 0 
16 -3.88423e-11 3.4754e-11 -2.92826e-11 
20 -4.42823e-11 6.18969e-12 1.78762e-11 
24 -1.36609e-11 -2.49692e-12 -5.22793e-12 
28 0 0 0 
32 0 0 0 
36 -1.68817e-11 -9.85302e-12 1.6325e-11 
40 -1.3466e-11 3.58127e-12 2.86977e-12 
44 0 0 0 
48 -2.2463e-11 -7.77556e-12 -1.95266e-11 
52 -3.05468e-11 -2.43529e-11 1.62314e-11 
56 0 0 0 
60 -1.01048e-11 -1.27371e-11 -4.55655e-12 
64 0 0 0 
68 2.00906e-12 -1.69581e-11 1.10075e-11 
72 1.33753e-10 -2.01959e-10 5.06664e-11 
76 1.23146e-10 -1.93491e-10 -3.25466e-11 
80 0 0 0 
84 4.89897e-11 -1.05235e-10 6.96796e-11 
88 1.17399e-10 -3.51772e-10 9.59245e-11 
92 6.5424e-11 -1.79682e-10 -3.95913e-11 
96 2.36478e-11 -4.87194e-11 -3.44985e-11 
100 -2.56253e-11 -6.11323e-11 5.50724e-11 
104 -2.06185e-11 -1.2962e-10 1.59004e-11 
108 3.72985e-13 -1.27236e-11 -5.95271e-12 
112 8.86181e-12 -1.31213e-11 -6.88963e-12 
116 -1.62205e-11 -1.80946e-11 1.19376e-11 
120 -8.0012e-12 -1.46589e-11 3.85355e-12 
124 -2.28642e-11 -3.90298e-11 -7.19762e-12 
128 0 0 0 