ITEM: TIMESTEP
25000
ITEM: NUMBER OF SURFS
192
ITEM: BOX BOUNDS oo rr rr
0 0.0005
0 0.0005
0 0.0005
ITEM: SURFS id f_f_drag_blocks[1] f_f_drag_blocks[2] f_f_drag_blocks[3] 
1 0 0 0 
5 0 0 0 
9 0 0 0 
13 0 0 0 
17 0 0 0 
21 0 0 0 
25 0 0 0 
29 0 0 0 
33 0 0 0 
37 0 0 0 
41 0 0 0 
45 0 0 0 
49 0 0 0 
53 0 0 0 
57 0 0 0 
61 0 0 0 
65 0 0 0 
69 0 0 0 
73 0 0 0 
77 0 0 0 
81 0 0 0 
85 0 0 0 
89 0 0 0 
93 0 0 0 
97 0 0 0 
101 0 0 0 
105 0 0 0 
109 0 0 0 
113 0 0 0 
117 0 0 0 
121 0 0 0 
125 0 0 0 
129 0 0 0 
133 0 0 0 
137 0 0 0 
141 0 0 0 
145 0 0 0 
149 0 0 0 
153 0 0 0 
157 0 0 0 
161 0 0 0 
165 0 0 0 
169 0 0 0 
173 0 0 0 
177 0 0 0 
181 0 0 0 
185 0 0 0 
189 0 0 0 
2 0 0 0 
6 0 0 0 
10 0 0 0 
14 0 0 0 
18 0 0 0 
22 0 0 0 
26 0 0 0 
30 0 0 0 
34 0 0 0 
38 0 0 0 
42 0 0 0 
46 0 0 0 
50 0 0 0 
54 0 0 0 
58 0 0 0 
62 0 0 0 
66 0 0 0 
70 0 0 0 
74 0 0 0 
78 0 0 0 
82 0 0 0 
86 0 0 0 
90 0 0 0 
94 0 0 0 
98 0 0 0 
102 0 0 0 
106 0 0 0 
110 0 0 0 
114 0 0 0 
118 0 0 0 
122 0 0 0 
126 0 0 0 
130 0 0 0 
134 0 0 0 
138 0 0 0 
142 0 0 0 
146 0 0 0 
150 0 0 0 
154 0 0 0 
158 0 0 0 
162 0 0 0 
166 0 0 0 
170 0 0 0 
174 0 0 0 
178 0 0 0 
182 0 0 0 
186 0 0 0 
190 0 0 0 
3 0 0 0 
7 0 0 0 
11 0 0 0 
15 0 0 0 
19 0 0 0 
23 0 0 0 
27 0 0 0 
31 0 0 0 
35 0 0 0 
39 0 0 0 
43 0 0 0 
47 0 0 0 
51 0 0 0 
55 0 0 0 
59 0 0 0 
63 0 0 0 
67 0 0 0 
71 0 0 0 
75 0 0 0 
79 0 0 0 
83 0 0 0 
87 0 0 0 
91 0 0 0 
95 0 0 0 
99 0 0 0 
103 0 0 0 
107 0 0 0 
111 0 0 0 
115 0 0 0 
119 0 0 0 
123 0 0 0 
127 0 0 0 
131 0 0 0 
135 0 0 0 
139 0 0 0 
143 0 0 0 
147 0 0 0 
151 0 0 0 
155 0 0 0 
159 0 0 0 
163 0 0 0 
167 0 0 0 
171 0 0 0 
175 0 0 0 
179 0 0 0 
183 0 0 0 
187 0 0 0 
191 0 0 0 
4 0 0 0 
8 0 0 0 
12 0 0 0 
16 0 0 0 
20 0 0 0 
24 0 0 0 
28 0 0 0 
32 0 0 0 
36 0 0 0 
40 0 0 0 
44 0 0 0 
48 0 0 0 
52 0 0 0 
56 0 0 0 
60 0 0 0 
64 0 0 0 
68 0 0 0 
72 0 0 0 
76 0 0 0 
80 0 0 0 
84 0 0 0 
88 0 0 0 
92 0 0 0 
96 0 0 0 
100 0 0 0 
104 0 0 0 
108 0 0 0 
112 0 0 0 
116 0 0 0 
120 0 0 0 
124 0 0 0 
128 0 0 0 
132 0 0 0 
136 0 0 0 
140 0 0 0 
144 0 0 0 
148 0 0 0 
152 0 0 0 
156 0 0 0 
160 0 0 0 
164 0 0 0 
168 0 0 0 
172 0 0 0 
176 0 0 0 
180 0 0 0 
184 0 0 0 
188 0 0 0 
192 0 0 0 
ITEM: TIMESTEP
26000
ITEM: NUMBER OF SURFS
192
ITEM: BOX BOUNDS oo rr rr
0 0.0005
0 0.0005
0 0.0005
ITEM: SURFS id f_f_drag_blocks[1] f_f_drag_blocks[2] f_f_drag_blocks[3] 
1 1.37965e-10 8.62517e-11 1.10498e-10 
5 3.36868e-10 2.05699e-10 9.55718e-11 
9 2.72157e-10 1.75125e-10 -6.88642e-11 
13 1.20797e-10 9.00192e-11 -8.8016e-11 
17 2.20018e-10 3.76129e-11 1.40594e-10 
21 5.33666e-10 1.04386e-10 1.28033e-10 
25 5.99851e-10 1.36472e-10 -1.38706e-10 
29 2.46715e-10 6.72609e-11 -1.62819e-10 
33 2.0356e-10 -5.88873e-11 1.31699e-10 
37 4.51577e-10 -8.28106e-11 7.98409e-11 
41 5.53184e-10 -1.28546e-10 -1.22102e-10 
45 2.41566e-10 -4.61882e-11 -1.48208e-10 
49 1.27655e-10 -6.17031e-11 6.98017e-11 
53 1.79806e-10 -1.16608e-10 3.44863e-11 
57 2.57765e-10 -1.70078e-10 -4.79988e-11 
61 1.42916e-10 -1.0836e-10 -9.12188e-11 
65 8.06687e-11 1.14464e-10 9.2836e-11 
69 9.35051e-11 1.25289e-10 3.21562e-11 
73 1.48801e-10 2.02251e-10 -4.09425e-11 
77 1.03667e-10 1.06877e-10 -7.5103e-11 
81 2.88456e-11 1.03339e-10 7.3662e-11 
85 5.04823e-11 1.93438e-10 3.41076e-11 
89 6.54967e-11 2.16069e-10 -4.73871e-11 
93 4.76596e-11 1.59628e-10 -1.09853e-10 
97 -5.85402e-12 5.96675e-11 4.09923e-11 
101 -1.45977e-11 8.84866e-11 2.08916e-11 
105 -1.51376e-11 7.70425e-11 -2.06057e-11 
109 -1.91009e-11 7.36482e-11 -3.86176e-11 
113 -9.8294e-12 2.60866e-11 1.30836e-11 
117 -9.4564e-12 1.41393e-11 -4.62294e-13 
121 -1.75329e-11 2.31133e-11 -5.80841e-12 
125 2.03804e-13 8.85255e-13 6.10722e-14 
129 7.04827e-11 7.84573e-11 1.02963e-10 
133 1.15807e-10 3.93946e-11 1.47884e-10 
137 1.86448e-10 -6.64887e-11 2.41865e-10 
141 8.6306e-11 -7.50084e-11 9.87041e-11 
145 4.09448e-11 9.2352e-11 1.33021e-10 
149 6.15782e-11 4.85605e-11 1.86731e-10 
153 5.40148e-11 -4.74549e-11 1.83047e-10 
157 2.16158e-11 -6.84785e-11 8.84694e-11 
161 -5.5565e-12 3.33267e-11 6.97645e-11 
165 -3.48314e-12 1.0295e-11 6.76975e-11 
169 -2.21241e-11 -1.99193e-11 1.15473e-10 
173 -1.1014e-11 -4.83354e-11 8.02668e-11 
177 -4.76351e-12 7.47956e-12 2.16353e-11 
181 -1.17755e-11 4.082e-12 2.17205e-11 
185 -6.0397e-12 -1.57184e-12 1.2935e-11 
189 -7.32616e-13 -3.58094e-12 4.22194e-12 
2 1.08732e-10 6.65754e-11 6.69133e-11 
6 2.02466e-10 1.28461e-10 2.67313e-11 
10 1.94975e-10 1.069e-10 -4.22015e-11 
14 1.37207e-10 7.26663e-11 -7.38006e-11 
18 2.92255e-10 7.52015e-11 1.70684e-10 
22 5.24968e-10 1.0605e-10 1.06842e-10 
26 3.21811e-10 6.87291e-11 -6.36864e-11 
30 2.23311e-10 4.35383e-11 -1.41852e-10 
34 2.52743e-10 -6.32294e-11 1.72735e-10 
38 7.58046e-10 -1.62454e-10 1.6576e-10 
42 5.07329e-10 -1.17366e-10 -1.05862e-10 
46 2.30443e-10 -4.686e-11 -1.72048e-10 
50 1.19052e-10 -1.03733e-10 9.02632e-11 
54 2.42118e-10 -1.56899e-10 6.13205e-11 
58 3.09807e-10 -1.73771e-10 -6.02721e-11 
62 1.25339e-10 -8.30082e-11 -8.59779e-11 
66 8.15182e-11 9.74072e-11 6.64991e-11 
70 1.42253e-10 1.75331e-10 6.01569e-11 
74 9.36318e-11 1.40413e-10 -3.78199e-11 
78 5.55843e-11 7.52458e-11 -4.30764e-11 
82 3.2585e-11 9.54358e-11 6.45814e-11 
86 5.53661e-11 2.02506e-10 4.59814e-11 
90 2.79057e-11 1.47865e-10 -2.92991e-11 
94 2.91969e-11 8.33701e-11 -5.45801e-11 
98 -1.77509e-11 7.19191e-11 4.92525e-11 
102 -1.95722e-11 1.26445e-10 2.25303e-11 
106 -1.59295e-12 1.10512e-10 -3.39411e-11 
110 -7.56421e-12 4.2307e-11 -3.61399e-11 
114 -7.07821e-12 1.59711e-11 5.15339e-12 
118 -9.02974e-12 2.15489e-11 5.2977e-13 
122 -1.44318e-11 2.10476e-11 -9.87183e-12 
126 -9.4331e-12 1.60705e-11 -1.29436e-11 
130 8.29107e-11 6.78699e-11 9.96652e-11 
134 9.11718e-11 1.76614e-11 1.04244e-10 
138 1.11603e-10 -2.35108e-11 1.52783e-10 
142 6.4713e-11 -5.50959e-11 9.44654e-11 
146 2.73185e-11 6.62021e-11 8.90299e-11 
150 7.18927e-11 4.56643e-11 2.32805e-10 
154 5.45435e-11 -4.07764e-11 1.82875e-10 
158 2.58812e-11 -6.78495e-11 8.7401e-11 
162 -4.63878e-12 5.14158e-11 6.89771e-11 
166 -1.10124e-11 1.85747e-11 8.036e-11 
170 -3.33099e-12 -2.04108e-11 8.72367e-11 
174 -7.20847e-12 -2.72464e-11 3.93662e-11 
178 -1.98416e-11 3.27192e-11 3.08523e-11 
182 -1.55241e-11 6.78148e-12 3.24034e-11 
186 -7.84422e-12 -6.35135e-12 1.85707e-11 
190 -5.65748e-12 -4.77773e-12 5.02188e-12 
3 -3.81668e-12 9.72278e-13 2.07931e-12 
7 -1.79425e-11 1.38637e-11 3.3621e-12 
11 -1.3507e-11 1.16109e-11 -4.45639e-12 
15 -1.45541e-11 2.05604e-11 -1.95333e-11 
19 -9.6454e-12 2.68069e-12 6.79457e-12 
23 -6.47115e-12 1.6698e-12 2.2043e-12 
27 -1.09639e-11 -4.10846e-13 -1.67952e-12 
31 -4.73909e-12 2.15049e-12 -1.58132e-12 
35 -7.16095e-12 -2.53686e-12 5.98036e-12 
39 -9.43331e-12 -4.74447e-13 1.7919e-12 
43 -3.54767e-12 -1.77441e-12 -5.02206e-13 
47 -1.3036e-11 -6.61526e-12 -1.04564e-11 
51 -3.87502e-12 -1.25464e-12 1.72182e-12 
55 -7.45821e-12 -3.79848e-12 -1.42346e-12 
59 -5.10565e-12 -8.0133e-12 -2.74025e-12 
63 -9.26928e-12 -9.34037e-12 -7.21598e-12 
67 7.50272e-11 -1.04884e-10 8.47354e-11 
71 1.15805e-10 -1.51931e-10 4.51944e-11 
75 1.98937e-10 -2.53084e-10 -7.90556e-11 
79 1.10691e-10 -1.15468e-10 -9.52213e-11 
83 2.35837e-11 -6.41171e-11 4.43788e-11 
87 5.83136e-11 -2.01389e-10 4.08548e-11 
91 7.56255e-11 -2.03417e-10 -6.29804e-11 
95 2.89575e-11 -9.9763e-11 -7.56948e-11 
99 -1.21111e-12 -2.94829e-11 2.41956e-11 
103 -8.76379e-12 -7.83201e-11 6.8924e-12 
107 -1.42e-11 -1.2623e-10 -3.7435e-11 
111 -1.38875e-11 -6.00257e-11 -4.09144e-11 
115 -4.23048e-12 -4.04991e-12 6.47895e-12 
119 -3.64234e-13 -6.01126e-12 2.1835e-12 
123 -1.81387e-11 -3.34651e-11 -1.04527e-11 
127 -8.64169e-12 -1.13615e-11 -1.00035e-11 
131 3.48943e-11 3.4303e-11 -5.06362e-11 
135 1.1653e-10 3.15764e-11 -1.55051e-10 
139 1.69516e-10 -3.90032e-11 -2.08384e-10 
143 7.97708e-11 -5.98165e-11 -7.67196e-11 
147 3.72525e-11 7.4327e-11 -1.06889e-10 
151 7.36099e-11 4.51451e-11 -1.97108e-10 
155 5.48888e-11 -6.12888e-11 -1.96645e-10 
159 4.42369e-11 -9.5373e-11 -1.41531e-10 
163 3.59936e-12 2.098e-11 -4.09645e-11 
167 -7.39603e-12 1.41066e-11 -9.19137e-11 
171 -1.31629e-11 -1.07452e-11 -9.24053e-11 
175 -6.58071e-12 -4.217e-11 -5.91245e-11 
179 -5.61226e-12 8.62909e-12 -1.82148e-11 
183 -1.30124e-11 3.73152e-12 -2.30846e-11 
187 -8.17192e-12 -1.34262e-12 -1.17668e-11 
191 -8.03117e-12 -1.23138e-11 -1.22379e-11 
4 -1.11478e-11 4.50046e-12 2.89952e-12 
8 -6.57312e-12 8.03764e-12 8.09658e-13 
12 -3.94215e-12 1.69845e-12 -7.49893e-13 
16 -4.67611e-12 2.92837e-12 -3.19931e-12 
20 -5.79694e-12 2.39426e-12 7.33273e-12 
24 -6.26757e-12 1.45291e-12 1.46609e-12 
28 -1.33897e-11 7.50641e-12 -3.05259e-12 
32 -1.07763e-11 1.16521e-12 -6.52537e-12 
36 -2.20616e-11 -1.75679e-12 1.57742e-11 
40 -2.79405e-11 -4.47617e-12 5.13174e-12 
44 -5.109e-12 -7.79738e-13 -3.7903e-12 
48 -1.29693e-11 -5.4535e-13 -9.1473e-12 
52 -1.04113e-11 -1.03035e-11 9.55935e-12 
56 -5.47703e-12 -4.88109e-12 1.57793e-12 
60 -1.56893e-11 -1.0452e-11 -9.16777e-13 
64 -4.7972e-12 -4.68747e-12 -2.99919e-12 
68 9.24028e-11 -9.22218e-11 6.80805e-11 
72 1.19985e-10 -1.43528e-10 2.32143e-11 
76 9.34371e-11 -1.27981e-10 -2.96544e-11 
80 4.41011e-11 -6.32885e-11 -3.8933e-11 
84 3.35927e-11 -9.93588e-11 7.53976e-11 
88 7.55277e-11 -2.5602e-10 3.46595e-11 
92 5.665e-11 -1.7189e-10 -3.09699e-11 
96 1.57633e-11 -7.48755e-11 -4.68113e-11 
100 -1.80252e-11 -6.21844e-11 4.03498e-11 
104 -1.91908e-11 -6.44542e-11 2.56421e-11 
108 -9.77491e-12 -1.00735e-10 -1.63169e-11 
112 -9.97567e-12 -6.2072e-11 -4.37026e-11 
116 -6.8141e-12 -9.51021e-12 5.20783e-12 
120 -1.02798e-11 -1.92123e-11 1.70462e-12 
124 -2.25155e-12 -1.46476e-11 -2.47953e-12 
128 -1.31012e-11 -2.12928e-11 -1.74951e-11 
132 1.00002e-10 6.66184e-11 -1.14193e-10 
136 1.58571e-10 3.42546e-11 -1.95739e-10 
140 1.01932e-10 -3.60012e-11 -1.54086e-10 
144 3.97913e-11 -3.83117e-11 -7.64429e-11 
148 3.20575e-11 7.32876e-11 -1.10859e-10 
152 5.54953e-11 2.25368e-11 -1.63358e-10 
156 3.10976e-11 -3.34321e-11 -1.29969e-10 
160 1.70215e-11 -5.22521e-11 -8.25685e-11 
164 -7.19137e-12 4.47026e-11 -5.9184e-11 
168 -1.74331e-11 2.44122e-11 -9.23173e-11 
172 -2.30154e-11 -2.09759e-11 -1.18787e-10 
176 -9.80257e-12 -3.71012e-11 -5.27246e-11 
180 -7.17103e-12 7.91953e-12 -1.03466e-11 
184 -2.03619e-11 8.68525e-12 -3.17065e-11 
188 -8.80699e-12 -4.15176e-12 -1.45227e-11 
192 -1.00309e-11 -9.34499e-12 -2.1362e-11 
ITEM: TIMESTEP
27000
ITEM: NUMBER OF SURFS
192
ITEM: BOX BOUNDS oo rr rr
0 0.0005
0 0.0005
0 0.0005
ITEM: SURFS id f_f_drag_blocks[1] f_f_drag_blocks[2] f_f_drag_blocks[3] 
1 1.43623e-10 8.24134e-11 9.58248e-11 
5 2.04486e-10 1.38543e-10 4.69723e-11 
9 2.27699e-10 1.58474e-10 -5.50322e-11 
13 1.11339e-10 7.94346e-11 -8.04467e-11 
17 1.87487e-10 3.79889e-11 1.25279e-10 
21 5.24947e-10 9.5641e-11 1.09226e-10 
25 5.28098e-10 1.19661e-10 -1.11861e-10 
29 2.12475e-10 4.98063e-11 -1.50037e-10 
33 2.00251e-10 -3.89714e-11 1.0476e-10 
37 4.97185e-10 -1.04683e-10 9.39146e-11 
41 5.98205e-10 -1.27478e-10 -1.11535e-10 
45 2.95061e-10 -7.10801e-11 -1.76682e-10 
49 1.06197e-10 -6.11137e-11 5.73093e-11 
53 1.42231e-10 -8.22708e-11 3.29913e-11 
57 1.82573e-10 -1.30276e-10 -4.17658e-11 
61 9.67046e-11 -7.16094e-11 -5.75683e-11 
65 4.34657e-11 6.68682e-11 3.49861e-11 
69 1.82766e-10 2.62068e-10 5.56253e-11 
73 1.81318e-10 2.34105e-10 -5.55331e-11 
77 1.11364e-10 1.33936e-10 -1.10812e-10 
81 3.48711e-11 1.22257e-10 9.84898e-11 
85 4.94741e-11 1.73857e-10 4.04081e-11 
89 8.51911e-11 2.5254e-10 -6.64058e-11 
93 4.60237e-11 1.14306e-10 -1.06751e-10 
97 -1.14354e-11 4.42587e-11 3.22179e-11 
101 -4.99782e-12 6.89237e-11 9.84984e-12 
105 -1.07062e-11 1.10053e-10 -2.9824e-11 
109 -7.83484e-12 3.34648e-11 -2.42521e-11 
113 -1.1368e-11 1.59967e-11 7.53241e-12 
117 -1.28093e-11 2.39595e-11 3.79014e-12 
121 -1.12522e-11 1.90649e-11 -6.94942e-12 
125 -5.60675e-12 9.78848e-12 -5.94437e-12 
129 9.37518e-11 8.48192e-11 1.12612e-10 
133 1.33483e-10 4.9432e-11 1.89852e-10 
137 1.93622e-10 -5.56052e-11 2.43464e-10 
141 7.3309e-11 -6.70434e-11 9.26156e-11 
145 1.8531e-11 5.28529e-11 8.15569e-11 
149 5.50249e-11 4.579e-11 1.83344e-10 
153 6.43049e-11 -4.79021e-11 1.936e-10 
157 3.12292e-11 -8.24628e-11 1.03779e-10 
161 -9.57014e-12 2.10158e-11 3.23209e-11 
165 -1.26256e-11 1.30643e-11 7.23671e-11 
169 -1.21893e-11 -1.72954e-11 8.49424e-11 
173 -1.79432e-11 -3.89762e-11 6.60256e-11 
177 -1.24782e-11 1.54847e-11 2.10537e-11 
181 -9.16733e-12 5.06946e-12 1.9152e-11 
185 -1.04819e-11 -2.38042e-12 1.63372e-11 
189 -1.68199e-12 -1.56233e-12 5.93946e-12 
2 1.56899e-10 1.1019e-10 9.67156e-11 
6 2.49527e-10 1.6496e-10 4.28334e-11 
10 2.06585e-10 1.2534e-10 -4.16887e-11 
14 1.66409e-10 8.5929e-11 -8.45737e-11 
18 3.60165e-10 7.33057e-11 2.17371e-10 
22 5.25777e-10 1.31212e-10 1.12104e-10 
26 5.4275e-10 9.98458e-11 -1.27239e-10 
30 2.01092e-10 3.60546e-11 -1.18891e-10 
34 2.51056e-10 -7.50531e-11 1.8215e-10 
38 5.64799e-10 -1.21563e-10 1.23417e-10 
42 5.08552e-10 -9.86579e-11 -1.17511e-10 
46 1.65457e-10 -2.47974e-11 -1.17114e-10 
50 8.31666e-11 -6.42174e-11 6.5298e-11 
54 2.30251e-10 -1.57412e-10 5.02635e-11 
58 2.70523e-10 -1.75886e-10 -6.62381e-11 
62 1.71922e-10 -1.03795e-10 -1.15956e-10 
66 6.46588e-11 8.33508e-11 5.08071e-11 
70 1.15764e-10 1.54397e-10 2.68296e-11 
74 1.27202e-10 1.734e-10 -3.10339e-11 
78 6.09818e-11 8.47428e-11 -5.35413e-11 
82 3.12513e-11 1.12747e-10 7.32351e-11 
86 4.29302e-11 1.59281e-10 2.91824e-11 
90 3.96633e-11 1.98037e-10 -3.9655e-11 
94 3.27154e-11 9.30042e-11 -6.93864e-11 
98 -1.5053e-11 5.84683e-11 3.87636e-11 
102 -1.64411e-11 1.15572e-10 2.90514e-11 
106 -1.81269e-11 1.17663e-10 -3.35154e-11 
110 -3.88971e-12 3.89421e-11 -2.56937e-11 
114 -2.8389e-12 8.89004e-12 8.53754e-12 
118 -2.99069e-12 6.72825e-12 -2.59656e-12 
122 -7.90072e-12 1.85592e-11 -1.09366e-12 
126 -1.09328e-11 1.531e-11 -1.34735e-11 
130 1.102e-10 8.28937e-11 1.28541e-10 
134 1.05626e-10 3.26769e-11 1.32044e-10 
138 8.53433e-11 -2.91151e-11 1.16379e-10 
142 2.61872e-11 -2.44243e-11 4.24726e-11 
146 3.33402e-11 5.93001e-11 9.81837e-11 
150 6.59246e-11 4.30358e-11 1.99359e-10 
154 6.70233e-11 -3.98504e-11 2.14953e-10 
158 2.46375e-11 -4.34316e-11 7.06863e-11 
162 -5.0316e-12 2.78776e-11 3.91702e-11 
166 -1.89733e-11 2.16932e-11 1.18547e-10 
170 -3.68097e-12 -9.97473e-12 6.42486e-11 
174 -8.67361e-12 -4.49847e-11 5.88147e-11 
178 -1.26567e-11 9.71649e-12 1.15003e-11 
182 -1.13419e-11 5.08032e-12 2.31694e-11 
186 -1.4513e-11 -8.6679e-12 3.15365e-11 
190 -8.17425e-12 -1.18291e-11 2.0556e-11 
3 -7.81407e-12 1.25112e-11 1.00882e-11 
7 -9.93507e-12 1.02573e-11 2.37283e-12 
11 -1.38704e-11 1.51102e-11 -1.72828e-12 
15 -6.98213e-12 9.68139e-12 -9.53498e-12 
19 -3.31663e-12 1.13283e-12 8.78066e-13 
23 -8.59818e-12 -3.83943e-13 3.06403e-12 
27 -1.28978e-11 2.7024e-12 1.51363e-12 
31 -1.93585e-11 7.84013e-12 -1.13335e-11 
35 -1.09221e-11 1.58216e-12 1.10062e-11 
39 -7.96899e-13 -9.54971e-13 7.91397e-13 
43 -5.85051e-12 -1.68979e-12 -2.56283e-12 
47 -8.56895e-12 -1.98765e-12 -4.3055e-12 
51 -1.63756e-12 -6.77859e-13 3.8805e-13 
55 3.90996e-13 -2.80855e-12 1.37091e-12 
59 -3.48922e-12 -3.64729e-12 -1.06938e-12 
63 -1.07668e-11 -1.26072e-11 -8.38167e-12 
67 6.25324e-11 -8.97506e-11 5.98656e-11 
71 1.04044e-10 -1.59291e-10 3.94777e-11 
75 1.40031e-10 -1.78344e-10 -5.60544e-11 
79 1.21584e-10 -1.14918e-10 -9.38175e-11 
83 2.54771e-11 -9.41754e-11 6.97114e-11 
87 4.74025e-11 -1.70844e-10 4.25986e-11 
91 7.59663e-11 -1.96568e-10 -4.92962e-11 
95 3.36687e-11 -8.92515e-11 -5.54111e-11 
99 -1.59578e-11 -6.29802e-11 4.02332e-11 
103 -2.77038e-11 -1.22445e-10 3.03728e-11 
107 -1.62668e-11 -1.0565e-10 -1.32185e-11 
111 -2.05441e-12 -2.99349e-11 -2.07908e-11 
115 -4.21277e-12 -1.12609e-11 3.97925e-12 
119 -1.2282e-11 -2.64085e-11 1.32313e-12 
123 -4.09744e-12 -7.1465e-12 -7.48573e-13 
127 -4.24592e-12 -8.97967e-12 -3.07776e-12 
131 4.32938e-11 4.76427e-11 -6.31028e-11 
135 8.66801e-11 3.93085e-11 -1.32438e-10 
139 1.97069e-10 -7.03946e-11 -2.26594e-10 
143 7.79419e-11 -7.81316e-11 -9.26653e-11 
147 1.34283e-11 4.24879e-11 -5.20572e-11 
151 5.77743e-11 4.22086e-11 -1.94564e-10 
155 6.76723e-11 -5.52103e-11 -2.17796e-10 
159 2.44995e-11 -5.59577e-11 -8.68834e-11 
163 -7.72953e-12 3.98483e-11 -5.47854e-11 
167 -1.54779e-11 1.48831e-11 -7.06189e-11 
171 -2.39316e-11 -1.81433e-11 -1.05525e-10 
175 -1.06689e-11 -3.28308e-11 -5.55024e-11 
179 -1.09383e-11 1.65596e-11 -2.07459e-11 
183 -8.9362e-12 4.13638e-12 -1.7029e-11 
187 -1.29832e-11 -2.23173e-12 -2.27133e-11 
191 -1.20493e-11 -1.57052e-11 -2.33064e-11 
4 -8.50568e-12 1.00574e-11 3.86825e-12 
8 -1.35234e-12 2.37572e-12 4.38906e-13 
12 -9.28571e-12 4.96845e-12 -4.49119e-12 
16 -4.42399e-12 3.36417e-12 -2.03211e-12 
20 -1.24148e-11 4.35354e-13 1.03881e-11 
24 -6.69791e-12 1.72059e-12 5.8129e-13 
28 -1.16744e-11 2.71666e-12 -6.47502e-12 
32 -1.63883e-11 6.42932e-12 -1.3576e-11 
36 -1.51819e-11 -3.1226e-12 9.42723e-12 
40 -8.02319e-12 -6.05515e-12 1.34297e-12 
44 -7.50734e-12 2.11804e-13 -2.09164e-12 
48 -5.74747e-12 -8.98776e-13 -5.21641e-12 
52 -1.29695e-11 -1.48407e-11 1.60908e-11 
56 -1.61092e-11 -1.18325e-11 6.23061e-12 
60 -1.33279e-11 -8.73084e-12 -3.691e-12 
64 9.36032e-14 -2.08984e-12 -4.94307e-13 
68 6.92059e-11 -7.98817e-11 4.68234e-11 
72 1.249e-10 -1.51247e-10 3.26763e-11 
76 8.22441e-11 -1.09705e-10 -2.73181e-11 
80 3.33637e-11 -4.49368e-11 -2.24931e-11 
84 3.15609e-11 -1.02704e-10 6.41267e-11 
88 6.42247e-11 -2.08062e-10 3.60634e-11 
92 3.05776e-11 -1.27016e-10 -2.70581e-11 
96 4.21163e-12 -2.14963e-11 -1.19309e-11 
100 -6.80632e-12 -6.68204e-11 4.30356e-11 
104 -7.56929e-12 -1.12282e-10 2.04597e-11 
108 -2.39256e-12 -5.67856e-11 -2.19323e-11 
112 -5.30828e-12 -3.95356e-11 -2.80685e-11 
116 -1.14376e-11 -2.27615e-11 1.05626e-11 
120 -1.42758e-11 -2.62376e-11 6.4315e-12 
124 -1.12445e-11 -2.26783e-11 -6.84591e-12 
128 -9.58411e-12 -2.00359e-11 -1.28387e-11 
132 9.35786e-11 7.39455e-11 -1.08043e-10 
136 1.4422e-10 3.94821e-11 -1.8196e-10 
140 1.21055e-10 -2.79631e-11 -1.48966e-10 
144 6.74368e-11 -4.93567e-11 -1.0156e-10 
148 5.44565e-11 9.44939e-11 -1.50655e-10 
152 6.39297e-11 4.04482e-11 -2.34891e-10 
156 5.65589e-11 -2.82874e-11 -1.76555e-10 
160 2.1227e-11 -5.33639e-11 -8.69381e-11 
164 -1.31372e-11 4.80156e-11 -6.65035e-11 
168 -1.13189e-11 1.58038e-11 -9.29714e-11 
172 -1.3795e-11 -3.22152e-11 -1.08623e-10 
176 2.9098e-12 -2.28835e-11 -2.88213e-11 
180 -1.43933e-11 1.98171e-11 -2.01461e-11 
184 -1.13796e-11 6.71941e-12 -3.15706e-11 
188 -1.94691e-11 -4.13852e-12 -2.70322e-11 
192 -1.25486e-11 -1.88109e-11 -2.24731e-11 
ITEM: TIMESTEP
28000
ITEM: NUMBER OF SURFS
192
ITEM: BOX BOUNDS oo rr rr
0 0.0005
0 0.0005
0 0.0005
ITEM: SURFS id f_f_drag_blocks[1] f_f_drag_blocks[2] f_f_drag_blocks[3] 
1 1.14284e-10 8.04901e-11 9.20984e-11 
5 2.73499e-10 1.86089e-10 6.67818e-11 
9 2.49145e-10 1.71759e-10 -5.26866e-11 
13 1.41308e-10 9.85605e-11 -9.37508e-11 
17 2.21399e-10 3.93699e-11 1.53837e-10 
21 7.17559e-10 1.68639e-10 1.54772e-10 
25 5.911e-10 1.50216e-10 -1.1614e-10 
29 2.55145e-10 6.51636e-11 -1.77164e-10 
33 2.11475e-10 -3.15757e-11 1.1444e-10 
37 5.03412e-10 -1.06297e-10 1.06029e-10 
41 5.57781e-10 -1.26602e-10 -1.13668e-10 
45 2.83707e-10 -7.53227e-11 -1.70199e-10 
49 1.5499e-10 -9.20211e-11 8.58915e-11 
53 2.40213e-10 -1.42622e-10 4.02611e-11 
57 2.0734e-10 -1.33639e-10 -4.21963e-11 
61 1.37808e-10 -9.08989e-11 -8.78143e-11 
65 5.40098e-11 7.50843e-11 5.97236e-11 
69 1.01169e-10 1.27141e-10 2.45169e-11 
73 1.70729e-10 2.06802e-10 -4.14069e-11 
77 1.01496e-10 1.0187e-10 -9.38954e-11 
81 2.17484e-11 9.50626e-11 6.7318e-11 
85 4.50841e-11 1.56299e-10 3.78499e-11 
89 7.30806e-11 2.54496e-10 -6.2676e-11 
93 3.97405e-11 1.13885e-10 -7.37311e-11 
97 -6.76673e-12 3.54672e-11 2.75288e-11 
101 -1.14404e-11 7.55037e-11 1.35028e-11 
105 -9.87469e-12 8.82131e-11 -1.37369e-11 
109 -3.43376e-12 1.9731e-11 -1.57009e-11 
113 -4.53242e-12 1.05534e-11 7.39146e-12 
117 -1.05695e-11 1.70355e-11 4.19197e-12 
121 -2.5832e-11 3.41661e-11 -5.16244e-12 
125 -6.61438e-12 1.70392e-11 -1.02691e-11 
129 5.11798e-11 4.77111e-11 6.65764e-11 
133 1.14861e-10 3.97371e-11 1.59928e-10 
137 1.6779e-10 -6.96649e-11 2.19125e-10 
141 9.73494e-11 -1.02256e-10 1.16665e-10 
145 1.93597e-11 5.19333e-11 6.12409e-11 
149 3.9156e-11 3.56477e-11 1.43759e-10 
153 5.83947e-11 -4.86968e-11 1.95997e-10 
157 4.17782e-11 -1.08935e-10 1.3879e-10 
161 -3.97927e-12 3.07755e-11 5.38538e-11 
165 -2.01465e-11 2.34396e-11 7.0269e-11 
169 -7.96122e-12 -1.24235e-11 5.97139e-11 
173 -7.05267e-12 -3.55512e-11 4.99417e-11 
177 -1.46107e-12 6.69728e-12 1.07313e-11 
181 -1.77671e-11 6.67691e-12 2.67004e-11 
185 -9.07588e-12 -6.58393e-12 1.5072e-11 
189 -6.75892e-12 -8.61559e-12 1.12668e-11 
2 1.17667e-10 7.02826e-11 7.32586e-11 
6 1.83129e-10 1.19302e-10 5.20515e-11 
10 1.43763e-10 8.52615e-11 -2.70637e-11 
14 1.27007e-10 6.35987e-11 -6.09768e-11 
18 2.83641e-10 7.05122e-11 1.63933e-10 
22 5.06457e-10 1.11515e-10 1.03016e-10 
26 4.26846e-10 7.78063e-11 -8.57808e-11 
30 1.94821e-10 2.91325e-11 -1.23076e-10 
34 2.54475e-10 -6.75837e-11 1.93184e-10 
38 5.40387e-10 -1.38579e-10 1.39436e-10 
42 5.07434e-10 -1.19019e-10 -1.21782e-10 
46 2.39402e-10 -3.51514e-11 -1.55724e-10 
50 1.69111e-10 -1.28557e-10 1.28661e-10 
54 2.63424e-10 -1.61356e-10 7.52061e-11 
58 2.51769e-10 -1.63687e-10 -6.86336e-11 
62 1.23168e-10 -7.53692e-11 -8.73337e-11 
66 7.432e-11 8.98844e-11 6.06415e-11 
70 1.2187e-10 1.43172e-10 3.69917e-11 
74 1.01168e-10 1.49673e-10 -4.23015e-11 
78 4.53369e-11 7.73285e-11 -4.53271e-11 
82 4.88733e-11 1.54926e-10 1.01576e-10 
86 3.8738e-11 1.5361e-10 3.40173e-11 
90 4.35068e-11 1.37919e-10 -3.20507e-11 
94 2.64131e-11 1.11429e-10 -6.67696e-11 
98 -6.76646e-12 4.67902e-11 3.32902e-11 
102 -2.2254e-11 9.64597e-11 1.83468e-11 
106 -1.16682e-11 7.97658e-11 -1.42978e-11 
110 -2.03341e-13 4.72016e-11 -3.06533e-11 
114 -7.95982e-12 1.52916e-11 4.7321e-12 
118 -1.13149e-11 1.98788e-11 9.16363e-12 
122 -1.43492e-11 2.09357e-11 -9.18896e-12 
126 -8.21581e-13 1.80785e-11 -1.45091e-11 
130 9.67433e-11 7.90405e-11 1.04132e-10 
134 1.33535e-10 3.54146e-11 1.55515e-10 
138 1.5849e-10 -4.77728e-11 1.95586e-10 
142 6.08397e-11 -5.69331e-11 8.92845e-11 
146 3.67729e-11 6.84051e-11 1.06912e-10 
150 5.51127e-11 4.33399e-11 1.98268e-10 
154 5.67697e-11 -4.87387e-11 2.31829e-10 
158 3.41089e-11 -6.74445e-11 1.15599e-10 
162 -1.08947e-11 2.96319e-11 5.63558e-11 
166 -1.86298e-11 1.70052e-11 1.0167e-10 
170 -4.20891e-12 -2.22911e-11 7.70841e-11 
174 -5.27541e-12 -2.57158e-11 3.53041e-11 
178 -1.06761e-11 2.10136e-11 2.26273e-11 
182 -1.37474e-11 3.45224e-12 2.09087e-11 
186 -3.98527e-11 -1.21784e-11 6.24928e-11 
190 -5.49797e-12 -1.11216e-11 1.50291e-11 
3 -1.19711e-11 1.01263e-11 1.3376e-11 
7 -5.58343e-12 4.98375e-12 4.76627e-12 
11 -5.71185e-12 1.93326e-12 -1.6724e-13 
15 0 0 0 
19 -1.53767e-11 4.26669e-12 1.60471e-11 
23 -5.79395e-12 2.78603e-12 3.84616e-12 
27 -1.85555e-11 1.11854e-11 -5.11292e-12 
31 -4.24538e-12 1.13901e-12 -3.00505e-12 
35 -2.60645e-12 -2.09716e-12 4.30267e-12 
39 -7.30015e-12 3.12628e-12 9.20158e-13 
43 -1.98021e-11 -2.77444e-12 1.26036e-13 
47 -7.82662e-12 1.18543e-12 -6.0009e-12 
51 -4.7848e-12 -4.22243e-12 2.89945e-12 
55 -1.11364e-11 -7.17827e-12 8.83333e-13 
59 -9.7968e-12 -1.28739e-11 -4.37066e-12 
63 -8.27426e-12 -1.01595e-11 -7.40626e-12 
67 4.0774e-11 -5.97003e-11 4.17153e-11 
71 1.39724e-10 -1.92978e-10 5.09994e-11 
75 1.31854e-10 -1.71906e-10 -3.88733e-11 
79 9.5952e-11 -1.04371e-10 -8.70964e-11 
83 2.83454e-11 -1.04036e-10 8.31832e-11 
87 4.13456e-11 -1.57663e-10 4.41699e-11 
91 9.58278e-11 -2.61166e-10 -7.02671e-11 
95 1.92122e-11 -9.07649e-11 -6.62877e-11 
99 -1.51163e-13 -4.65949e-11 3.0339e-11 
103 -1.43797e-11 -1.15736e-10 2.4104e-11 
107 -6.08986e-12 -1.06112e-10 -2.70396e-11 
111 -3.48598e-12 -5.60454e-11 -3.46285e-11 
115 -6.9323e-12 -1.761e-11 9.15053e-12 
119 -9.28474e-12 -1.61655e-11 2.00076e-12 
123 -5.88985e-12 -1.22828e-11 -3.66246e-12 
127 -5.12894e-12 -4.32396e-12 -5.32692e-12 
131 5.95259e-11 6.4871e-11 -7.54598e-11 
135 1.37184e-10 5.01982e-11 -1.83878e-10 
139 1.35585e-10 -4.69751e-11 -1.8397e-10 
143 7.42046e-11 -6.34049e-11 -8.15491e-11 
147 9.17267e-12 4.33146e-11 -5.70904e-11 
151 6.3821e-11 5.49259e-11 -2.11503e-10 
155 6.54489e-11 -3.85663e-11 -2.04534e-10 
159 5.49539e-11 -9.08241e-11 -1.29555e-10 
163 4.03743e-12 4.93039e-11 -7.57518e-11 
167 -1.09899e-11 1.94953e-11 -8.50126e-11 
171 -8.9241e-12 -2.81471e-11 -1.09678e-10 
175 -1.11194e-11 -2.84238e-11 -4.73036e-11 
179 -8.53148e-12 9.00545e-12 -1.19627e-11 
183 -3.45001e-12 5.73711e-13 -8.27019e-12 
187 -3.17364e-11 -1.22857e-11 -6.4652e-11 
191 -1.28396e-11 -1.14586e-11 -1.23034e-11 
4 -1.09082e-11 1.09486e-11 9.21296e-12 
8 -4.74153e-12 3.9777e-12 2.07666e-13 
12 -1.3787e-11 1.02013e-11 -1.64787e-12 
16 -7.5606e-12 3.82813e-12 -6.38567e-12 
20 -1.0759e-11 6.82308e-12 1.28046e-11 
24 -2.71592e-11 8.77172e-12 3.58934e-12 
28 -5.68209e-12 3.57867e-12 -2.03006e-12 
32 -5.94811e-12 9.08375e-13 -3.02456e-12 
36 -1.25191e-11 -8.30381e-13 1.09381e-11 
40 -6.54475e-12 -1.90057e-12 2.44622e-12 
44 -1.47593e-11 -4.08082e-12 -4.95546e-12 
48 -2.04814e-11 1.84541e-12 -1.30539e-11 
52 -7.45295e-12 -6.93652e-12 6.82939e-12 
56 -1.40789e-11 -1.03499e-11 5.22429e-12 
60 -1.12752e-12 -1.15924e-12 -1.81306e-13 
64 -2.31415e-12 -3.60013e-12 -1.25402e-12 
68 7.09499e-11 -8.07662e-11 4.63694e-11 
72 1.00302e-10 -1.41356e-10 1.92272e-11 
76 1.16653e-10 -1.58087e-10 -3.33676e-11 
80 3.83982e-11 -7.52956e-11 -4.33268e-11 
84 2.93949e-11 -1.00634e-10 6.32469e-11 
88 4.2049e-11 -1.66119e-10 3.23937e-11 
92 4.4669e-11 -1.93276e-10 -3.02803e-11 
96 2.62512e-11 -1.16012e-10 -7.1521e-11 
100 -7.07189e-12 -5.49474e-11 3.61414e-11 
104 -1.08816e-11 -1.41135e-10 3.84803e-11 
108 -6.6379e-12 -9.50008e-11 -2.55001e-11 
112 -3.46369e-12 -2.17051e-11 -1.47263e-11 
116 -5.35284e-12 -4.17675e-12 6.34288e-12 
120 -1.93127e-11 -2.91656e-11 7.31189e-12 
124 -9.67833e-12 -1.83223e-11 -6.11644e-12 
128 -8.29988e-12 -1.9353e-11 -1.26964e-11 
132 1.06172e-10 6.92752e-11 -1.18008e-10 
136 1.13472e-10 3.11548e-11 -1.48664e-10 
140 6.40779e-11 -1.74894e-11 -9.20551e-11 
144 4.89998e-11 -4.87566e-11 -8.44722e-11 
148 3.61544e-11 7.1076e-11 -1.05388e-10 
152 6.46109e-11 4.44995e-11 -1.99872e-10 
156 3.81915e-11 -3.95094e-11 -1.69533e-10 
160 2.95134e-11 -6.0998e-11 -9.34683e-11 
164 -1.10582e-11 4.88539e-11 -6.91796e-11 
168 -5.46934e-12 2.72802e-11 -1.03142e-10 
172 -1.45604e-11 -2.21852e-11 -8.17875e-11 
176 -7.3399e-12 -5.3006e-11 -7.61926e-11 
180 -2.18792e-11 2.1651e-11 -1.90617e-11 
184 -1.73036e-11 4.04456e-12 -2.88884e-11 
188 -2.04864e-11 -1.01948e-11 -3.47767e-11 
192 -1.61894e-11 -1.83651e-11 -2.36498e-11 
ITEM: TIMESTEP
29000
ITEM: NUMBER OF SURFS
192
ITEM: BOX BOUNDS oo rr rr
0 0.0005
0 0.0005
0 0.0005
ITEM: SURFS id f_f_drag_blocks[1] f_f_drag_blocks[2] f_f_drag_blocks[3] 
1 1.31335e-10 8.17423e-11 9.74067e-11 
5 3.00971e-10 1.73088e-10 6.26872e-11 
9 3.01915e-10 1.91846e-10 -8.4624e-11 
13 1.319e-10 1.09894e-10 -1.05552e-10 
17 1.88986e-10 4.87121e-11 1.2673e-10 
21 4.83835e-10 7.3896e-11 8.86425e-11 
25 6.74906e-10 1.37711e-10 -1.58798e-10 
29 2.55557e-10 5.62985e-11 -1.60615e-10 
33 2.181e-10 -3.54487e-11 1.2742e-10 
37 5.23801e-10 -1.2535e-10 1.15213e-10 
41 5.71092e-10 -1.31889e-10 -1.17118e-10 
45 2.31545e-10 -5.80479e-11 -1.38266e-10 
49 1.16868e-10 -6.72791e-11 6.70244e-11 
53 1.92659e-10 -1.19265e-10 3.35422e-11 
57 2.34085e-10 -1.6102e-10 -4.86256e-11 
61 1.12543e-10 -7.83928e-11 -6.57862e-11 
65 6.79707e-11 8.60461e-11 7.68992e-11 
69 1.7594e-10 2.27874e-10 7.66588e-11 
73 1.50162e-10 1.81961e-10 -5.47096e-11 
77 9.59031e-11 9.99223e-11 -8.79403e-11 
81 1.86786e-11 7.88501e-11 5.31574e-11 
85 5.36555e-11 1.87827e-10 4.40527e-11 
89 6.7733e-11 2.22729e-10 -4.80173e-11 
93 3.58725e-11 1.05442e-10 -7.00482e-11 
97 6.57251e-13 4.40915e-11 2.75191e-11 
101 -1.94306e-11 9.75366e-11 2.54992e-11 
105 -1.90015e-11 9.80507e-11 -2.79914e-11 
109 -1.17894e-11 4.42144e-11 -2.91525e-11 
113 -9.32986e-12 2.04537e-11 1.16011e-11 
117 -1.26284e-11 2.26004e-11 1.09986e-11 
121 -1.68997e-11 2.57849e-11 -7.02937e-12 
125 -7.88775e-12 1.33257e-11 -1.21736e-11 
129 6.95224e-11 7.58829e-11 9.56866e-11 
133 9.54163e-11 3.07558e-11 1.40972e-10 
137 1.20342e-10 -3.55494e-11 1.51314e-10 
141 1.29256e-10 -1.17427e-10 1.4114e-10 
145 2.83192e-11 7.09229e-11 1.00041e-10 
149 5.4907e-11 4.94387e-11 2.16069e-10 
153 6.44217e-11 -4.54435e-11 2.25158e-10 
157 2.72699e-11 -7.9519e-11 1.06152e-10 
161 -3.50334e-12 3.44001e-11 4.4295e-11 
165 1.32763e-12 2.68701e-11 1.11366e-10 
169 -9.99068e-12 -7.76846e-12 5.18337e-11 
173 -1.45529e-11 -4.7073e-11 6.49035e-11 
177 -9.42412e-13 1.64446e-12 9.10664e-13 
181 -6.08108e-12 2.56276e-12 1.89203e-11 
185 -9.29257e-12 -3.01214e-12 1.32316e-11 
189 -1.7148e-11 -1.49638e-11 2.24962e-11 
2 1.50393e-10 9.1933e-11 9.16349e-11 
6 2.33498e-10 1.68033e-10 4.53242e-11 
10 1.88572e-10 1.1245e-10 -3.42249e-11 
14 9.75236e-11 5.6009e-11 -6.26978e-11 
18 2.00009e-10 4.91333e-11 1.20522e-10 
22 5.99053e-10 1.19216e-10 1.30256e-10 
26 5.28111e-10 1.2364e-10 -9.39756e-11 
30 2.35511e-10 5.413e-11 -1.49984e-10 
34 3.01949e-10 -7.84401e-11 2.01716e-10 
38 5.86086e-10 -1.61912e-10 1.45963e-10 
42 5.74732e-10 -1.03206e-10 -1.11713e-10 
46 2.79408e-10 -4.88277e-11 -1.81183e-10 
50 1.21223e-10 -9.3532e-11 9.79916e-11 
54 2.54589e-10 -1.63958e-10 6.2537e-11 
58 3.14333e-10 -1.9934e-10 -8.46105e-11 
62 1.25959e-10 -7.49838e-11 -8.5335e-11 
66 9.11469e-11 1.01221e-10 6.8695e-11 
70 1.1151e-10 1.35893e-10 3.11165e-11 
74 7.41873e-11 1.1391e-10 -9.16416e-12 
78 4.44119e-11 7.50129e-11 -4.39e-11 
82 3.59668e-11 1.05245e-10 7.48165e-11 
86 8.07657e-11 2.57258e-10 5.975e-11 
90 6.42529e-11 2.14708e-10 -3.35236e-11 
94 1.32255e-11 6.82741e-11 -4.92527e-11 
98 -9.0851e-12 6.00441e-11 3.86252e-11 
102 -1.52417e-11 9.08358e-11 2.3192e-11 
106 -1.79654e-11 1.01217e-10 -1.75768e-11 
110 -5.73239e-12 5.97991e-11 -4.3998e-11 
114 -1.4953e-11 1.90409e-11 1.59669e-11 
118 -2.03288e-11 3.43133e-11 1.13231e-11 