ITEM: TIMESTEP
25000
ITEM: NUMBER OF SURFS
192
ITEM: BOX BOUNDS oo rr rr
0 0.0005
0 0.0005
0 0.0005
ITEM: SURFS id f_f_drag_cumul[1] f_f_drag_cumul[2] f_f_drag_cumul[3] 
1 0 0 0 
5 0 0 0 
9 0 0 0 
13 0 0 0 
17 0 0 0 
21 0 0 0 
25 0 0 0 
29 0 0 0 
33 0 0 0 
37 0 0 0 
41 0 0 0 
45 0 0 0 
49 0 0 0 
53 0 0 0 
57 0 0 0 
61 0 0 0 
65 0 0 0 
69 0 0 0 
73 0 0 0 
77 0 0 0 
81 0 0 0 
85 0 0 0 
89 0 0 0 
93 0 0 0 
97 0 0 0 
101 0 0 0 
105 0 0 0 
109 0 0 0 
113 0 0 0 
117 0 0 0 
121 0 0 0 
125 0 0 0 
129 0 0 0 
133 0 0 0 
137 0 0 0 
141 0 0 0 
145 0 0 0 
149 0 0 0 
153 0 0 0 
157 0 0 0 
161 0 0 0 
165 0 0 0 
169 0 0 0 
173 0 0 0 
177 0 0 0 
181 0 0 0 
185 0 0 0 
189 0 0 0 
2 0 0 0 
6 0 0 0 
10 0 0 0 
14 0 0 0 
18 0 0 0 
22 0 0 0 
26 0 0 0 
30 0 0 0 
34 0 0 0 
38 0 0 0 
42 0 0 0 
46 0 0 0 
50 0 0 0 
54 0 0 0 
58 0 0 0 
62 0 0 0 
66 0 0 0 
70 0 0 0 
74 0 0 0 
78 0 0 0 
82 0 0 0 
86 0 0 0 
90 0 0 0 
94 0 0 0 
98 0 0 0 
102 0 0 0 
106 0 0 0 
110 0 0 0 
114 0 0 0 
118 0 0 0 
122 0 0 0 
126 0 0 0 
130 0 0 0 
134 0 0 0 
138 0 0 0 
142 0 0 0 
146 0 0 0 
150 0 0 0 
154 0 0 0 
158 0 0 0 
162 0 0 0 
166 0 0 0 
170 0 0 0 
174 0 0 0 
178 0 0 0 
182 0 0 0 
186 0 0 0 
190 0 0 0 
3 0 0 0 
7 0 0 0 
11 0 0 0 
15 0 0 0 
19 0 0 0 
23 0 0 0 
27 0 0 0 
31 0 0 0 
35 0 0 0 
39 0 0 0 
43 0 0 0 
47 0 0 0 
51 0 0 0 
55 0 0 0 
59 0 0 0 
63 0 0 0 
67 0 0 0 
71 0 0 0 
75 0 0 0 
79 0 0 0 
83 0 0 0 
87 0 0 0 
91 0 0 0 
95 0 0 0 
99 0 0 0 
103 0 0 0 
107 0 0 0 
111 0 0 0 
115 0 0 0 
119 0 0 0 
123 0 0 0 
127 0 0 0 
131 0 0 0 
135 0 0 0 
139 0 0 0 
143 0 0 0 
147 0 0 0 
151 0 0 0 
155 0 0 0 
159 0 0 0 
163 0 0 0 
167 0 0 0 
171 0 0 0 
175 0 0 0 
179 0 0 0 
183 0 0 0 
187 0 0 0 
191 0 0 0 
4 0 0 0 
8 0 0 0 
12 0 0 0 
16 0 0 0 
20 0 0 0 
24 0 0 0 
28 0 0 0 
32 0 0 0 
36 0 0 0 
40 0 0 0 
44 0 0 0 
48 0 0 0 
52 0 0 0 
56 0 0 0 
60 0 0 0 
64 0 0 0 
68 0 0 0 
72 0 0 0 
76 0 0 0 
80 0 0 0 
84 0 0 0 
88 0 0 0 
92 0 0 0 
96 0 0 0 
100 0 0 0 
104 0 0 0 
108 0 0 0 
112 0 0 0 
116 0 0 0 
120 0 0 0 
124 0 0 0 
128 0 0 0 
132 0 0 0 
136 0 0 0 
140 0 0 0 
144 0 0 0 
148 0 0 0 
152 0 0 0 
156 0 0 0 
160 0 0 0 
164 0 0 0 
168 0 0 0 
172 0 0 0 
176 0 0 0 
180 0 0 0 
184 0 0 0 
188 0 0 0 
192 0 0 0 
ITEM: TIMESTEP
50000
ITEM: NUMBER OF SURFS
192
ITEM: BOX BOUNDS oo rr rr
0 0.0005
0 0.0005
0 0.0005
ITEM: SURFS id f_f_drag_cumul[1] f_f_drag_cumul[2] f_f_drag_cumul[3] 
1 1.33518e-10 8.16506e-11 9.66552e-11 
5 2.69276e-10 1.63731e-10 6.54755e-11 
9 2.66414e-10 1.78687e-10 -6.1683e-11 
13 1.18078e-10 9.18022e-11 -9.10706e-11 
17 2.05575e-10 3.97521e-11 1.38255e-10 
21 5.24527e-10 1.05933e-10 1.17316e-10 
25 5.91601e-10 1.4008e-10 -1.32623e-10 
29 2.49463e-10 6.15965e-11 -1.69198e-10 
33 2.18033e-10 -3.86223e-11 1.32162e-10 
37 4.81315e-10 -9.8633e-11 9.84623e-11 
41 5.33871e-10 -1.14425e-10 -1.10467e-10 
45 2.59811e-10 -6.04068e-11 -1.54201e-10 
49 1.27942e-10 -6.93487e-11 6.96075e-11 
53 2.22256e-10 -1.29312e-10 4.33392e-11 
57 2.24505e-10 -1.53538e-10 -4.1591e-11 
61 1.30559e-10 -9.31997e-11 -7.79924e-11 
65 6.32934e-11 8.73495e-11 6.64937e-11 
69 1.26383e-10 1.79699e-10 4.4564e-11 
73 1.59847e-10 2.04658e-10 -5.05571e-11 
77 9.06827e-11 9.81096e-11 -7.90293e-11 
81 2.6248e-11 8.67641e-11 6.54698e-11 
85 5.44519e-11 1.93939e-10 4.60586e-11 
89 6.53405e-11 2.1702e-10 -5.27231e-11 
93 3.73026e-11 1.13278e-10 -8.29023e-11 
97 -3.7478e-12 4.34725e-11 2.68113e-11 
101 -1.06564e-11 9.32833e-11 2.25371e-11 
105 -1.29508e-11 9.50338e-11 -1.98412e-11 
109 -7.43767e-12 5.25172e-11 -3.4716e-11 
113 -6.97828e-12 1.60778e-11 9.38329e-12 
117 -9.29762e-12 1.96805e-11 4.13255e-12 
121 -1.08588e-11 1.92572e-11 -4.15699e-12 
125 -9.40946e-12 1.55444e-11 -9.79285e-12 
129 6.36549e-11 6.49599e-11 8.32401e-11 
133 1.30125e-10 4.57662e-11 1.82912e-10 
137 1.55865e-10 -5.24245e-11 1.93785e-10 
141 9.53992e-11 -8.83891e-11 1.04934e-10 
145 2.83839e-11 6.92981e-11 9.71912e-11 
149 5.00334e-11 4.59208e-11 1.87196e-10 
153 6.69973e-11 -5.30233e-11 2.2021e-10 
157 3.86349e-11 -8.53128e-11 1.15043e-10 
161 -5.17819e-12 2.85718e-11 4.47032e-11 
165 -1.05793e-11 1.98587e-11 9.06718e-11 
169 -1.4357e-11 -2.27256e-11 9.81785e-11 
173 -1.05784e-11 -3.6622e-11 5.88048e-11 
177 -6.48609e-12 9.00018e-12 1.57285e-11 
181 -1.36892e-11 4.43194e-12 2.58316e-11 
185 -1.26727e-11 -5.10557e-12 1.90382e-11 
189 -8.4424e-12 -8.53889e-12 1.40505e-11 
2 1.38718e-10 9.86198e-11 8.08988e-11 
6 2.06478e-10 1.38959e-10 3.85976e-11 
10 2.22673e-10 1.32081e-10 -4.26224e-11 
14 1.19435e-10 6.46276e-11 -6.34655e-11 
18 2.61127e-10 6.48571e-11 1.59868e-10 
22 5.41931e-10 1.18183e-10 1.11231e-10 
26 5.06423e-10 9.74381e-11 -1.02713e-10 
30 2.25121e-10 4.09283e-11 -1.33231e-10 
34 2.57585e-10 -5.81017e-11 1.75666e-10 
38 5.99409e-10 -1.30241e-10 1.31896e-10 
42 5.53694e-10 -1.09514e-10 -1.1928e-10 
46 2.20504e-10 -4.46604e-11 -1.48085e-10 
50 1.22483e-10 -9.43667e-11 9.17735e-11 
54 2.71612e-10 -1.84417e-10 6.4934e-11 
58 2.59025e-10 -1.57993e-10 -6.50397e-11 
62 1.2336e-10 -7.40887e-11 -8.63744e-11 
66 8.87203e-11 1.00036e-10 6.43015e-11 
70 1.23475e-10 1.57915e-10 3.28152e-11 
74 9.90793e-11 1.42275e-10 -2.57659e-11 
78 5.08083e-11 7.93562e-11 -4.61776e-11 
82 3.73169e-11 1.07557e-10 7.11304e-11 
86 5.98287e-11 2.01121e-10 3.96315e-11 
90 5.0232e-11 1.80803e-10 -3.7379e-11 
94 2.63265e-11 9.18232e-11 -5.78147e-11 
98 -8.81456e-12 5.64729e-11 4.08111e-11 
102 -1.60298e-11 1.04066e-10 2.26892e-11 
106 -1.28158e-11 9.79723e-11 -2.54928e-11 
110 -4.16642e-12 4.59273e-11 -3.2848e-11 
114 -1.01235e-11 1.61438e-11 1.34087e-11 
118 -1.73801e-11 2.7896e-11 8.43853e-12 
122 -1.58547e-11 2.98205e-11 -7.39474e-12 
126 -9.53573e-12 1.87208e-11 -1.40655e-11 
130 8.81593e-11 6.65236e-11 1.03336e-10 
134 1.26369e-10 3.19303e-11 1.57838e-10 
138 9.77682e-11 -2.65106e-11 1.35897e-10 
142 4.94288e-11 -4.53726e-11 8.01064e-11 
146 3.73273e-11 7.8471e-11 1.17784e-10 
150 6.09837e-11 4.20429e-11 1.97413e-10 
154 5.33279e-11 -4.34355e-11 1.97124e-10 
158 2.51698e-11 -5.59052e-11 8.7695e-11 
162 -9.25032e-12 4.05299e-11 5.62586e-11 
166 -1.69585e-11 2.3393e-11 1.04049e-10 
170 -1.09091e-11 -2.5533e-11 9.36308e-11 
174 -6.48168e-12 -3.2274e-11 4.72892e-11 
178 -1.01432e-11 1.18203e-11 1.52795e-11 
182 -1.42126e-11 5.60789e-12 2.50669e-11 
186 -1.24462e-11 -5.80232e-12 2.51066e-11 
190 -1.02503e-11 -1.51079e-11 1.92156e-11 
3 -6.81995e-12 6.13172e-12 6.77846e-12 
7 -1.12882e-11 8.58392e-12 3.3042e-12 
11 -1.02232e-11 9.31814e-12 -3.04964e-12 
15 -9.02397e-12 9.53836e-12 -9.67833e-12 
19 -7.11737e-12 1.56402e-12 6.17949e-12 
23 -1.09531e-11 2.55365e-12 2.35903e-12 
27 -1.49563e-11 4.04874e-12 -3.52133e-12 
31 -8.17865e-12 2.20675e-12 -6.75037e-12 
35 -9.48836e-12 -2.35139e-12 8.08872e-12 
39 -1.1347e-11 -3.13501e-12 3.20024e-12 
43 -1.26316e-11 -3.00842e-12 -2.58445e-12 
47 -7.52944e-12 -1.49473e-12 -4.74257e-12 
51 -5.9594e-12 -3.98544e-12 3.4194e-12 
55 -7.30258e-12 -5.25669e-12 1.6903e-12 
59 -1.00953e-11 -7.93161e-12 -2.03758e-12 
63 -6.81058e-12 -6.27686e-12 -5.30638e-12 
67 6.58377e-11 -8.67205e-11 6.76176e-11 
71 1.24356e-10 -1.70625e-10 4.21129e-11 
75 1.50693e-10 -1.9069e-10 -5.17861e-11 
79 9.68195e-11 -1.05778e-10 -8.7319e-11 
83 2.70264e-11 -9.26595e-11 6.54895e-11 
87 5.20409e-11 -1.92411e-10 4.5379e-11 
91 6.40363e-11 -2.20716e-10 -5.21563e-11 
95 3.9374e-11 -1.10526e-10 -8.3283e-11 
99 -3.90083e-12 -4.83771e-11 2.91059e-11 
103 -9.59909e-12 -8.49157e-11 1.90564e-11 
107 -1.46035e-11 -9.31805e-11 -1.97251e-11 
111 -8.10145e-12 -5.37433e-11 -3.42353e-11 
115 -7.032e-12 -1.44094e-11 7.82154e-12 
119 -1.22548e-11 -2.12185e-11 4.51912e-12 
123 -1.08704e-11 -1.80524e-11 -3.88607e-12 
127 -6.91177e-12 -1.2032e-11 -8.04559e-12 
131 6.47009e-11 6.46005e-11 -8.48639e-11 
135 1.31534e-10 4.5619e-11 -1.82794e-10 
139 1.42352e-10 -4.67894e-11 -1.78781e-10 
143 9.59477e-11 -8.73725e-11 -1.03613e-10 
147 2.65992e-11 6.81468e-11 -9.21411e-11 
151 5.33199e-11 4.28177e-11 -1.84699e-10 
155 6.38263e-11 -5.19336e-11 -2.17039e-10 
159 4.09041e-11 -8.4567e-11 -1.18428e-10 
163 -4.55522e-12 2.98229e-11 -4.95621e-11 
167 -1.00192e-11 1.93999e-11 -8.90068e-11 
171 -1.45637e-11 -1.98527e-11 -1.02394e-10 
175 -7.66136e-12 -3.67913e-11 -5.98096e-11 
179 -6.43073e-12 9.34105e-12 -1.73705e-11 
183 -1.00491e-11 4.82019e-12 -2.25577e-11 
187 -1.17859e-11 -5.35629e-12 -1.97785e-11 
191 -8.21667e-12 -8.56443e-12 -1.4783e-11 
4 -6.63863e-12 6.50539e-12 5.03003e-12 
8 -9.01932e-12 7.17071e-12 1.57362e-12 
12 -6.7556e-12 5.56466e-12 -1.84357e-12 
16 -7.23303e-12 4.75465e-12 -5.90483e-12 
20 -8.04708e-12 2.32603e-12 5.0611e-12 
24 -1.22684e-11 2.4068e-12 3.23454e-12 
28 -8.00455e-12 2.66818e-12 -2.12589e-12 
32 -7.71382e-12 2.10105e-12 -4.76478e-12 
36 -9.52477e-12 -3.53215e-12 8.97535e-12 
40 -1.24933e-11 -3.41498e-12 2.7047e-12 
44 -1.0156e-11 -2.74188e-12 -3.26207e-12 
48 -9.36611e-12 -2.4115e-12 -8.36157e-12 
52 -9.84414e-12 -1.02566e-11 9.22525e-12 
56 -9.06776e-12 -8.55809e-12 3.10949e-12 
60 -1.01876e-11 -7.80934e-12 -3.55826e-12 
64 -5.39576e-12 -5.07884e-12 -5.9802e-12 
68 7.64928e-11 -9.42126e-11 6.01012e-11 
72 1.17182e-10 -1.46859e-10 2.97205e-11 
76 9.77133e-11 -1.42612e-10 -2.92971e-11 
80 5.38502e-11 -8.16767e-11 -4.72997e-11 
84 3.5517e-11 -1.05924e-10 6.88849e-11 
88 6.05518e-11 -1.98818e-10 3.91776e-11 
92 5.30974e-11 -1.78738e-10 -3.50125e-11 
96 2.18901e-11 -7.81682e-11 -5.02135e-11 
100 -1.04187e-11 -6.08335e-11 4.29966e-11 
104 -1.40624e-11 -1.11647e-10 2.719e-11 
108 -1.46579e-11 -1.04801e-10 -2.50001e-11 
112 -6.05892e-12 -5.78046e-11 -4.0135e-11 
116 -1.03053e-11 -1.47885e-11 1.25895e-11 
120 -1.18391e-11 -2.1661e-11 5.11494e-12 
124 -1.59914e-11 -2.6641e-11 -5.57337e-12 
128 -1.00268e-11 -1.92645e-11 -1.40915e-11 
132 8.15501e-11 6.16108e-11 -9.40963e-11 
136 1.21704e-10 3.044e-11 -1.52635e-10 
140 9.33953e-11 -2.96391e-11 -1.37583e-10 
144 4.91258e-11 -4.29994e-11 -7.39386e-11 
148 4.01572e-11 7.79246e-11 -1.17453e-10 
152 5.94699e-11 4.06003e-11 -1.93692e-10 
156 5.34941e-11 -3.94016e-11 -1.84145e-10 
160 2.48791e-11 -5.60294e-11 -8.67375e-11 
164 -8.67343e-12 4.2683e-11 -5.99012e-11 
168 -1.75407e-11 2.8647e-11 -1.12579e-10 
172 -1.44531e-11 -2.55053e-11 -1.02539e-10 
176 -5.00135e-12 -3.37421e-11 -4.54904e-11 
180 -9.14145e-12 1.06627e-11 -1.41851e-11 
184 -1.40136e-11 4.74684e-12 -2.48014e-11 
188 -1.47862e-11 -7.09569e-12 -2.81992e-11 
192 -7.81191e-12 -1.52821e-11 -1.74463e-11 
