ITEM: TIMESTEP
25000
ITEM: NUMBER OF SURFS
192
ITEM: BOX BOUNDS oo rr rr
0 0.0005
0 0.0005
0 0.0005
ITEM: SURFS id f_f_drag_blocks[1] f_f_drag_blocks[2] f_f_drag_blocks[3] 
1 0 0 0 
5 0 0 0 
9 0 0 0 
13 0 0 0 
17 0 0 0 
21 0 0 0 
25 0 0 0 
29 0 0 0 
33 0 0 0 
37 0 0 0 
41 0 0 0 
45 0 0 0 
49 0 0 0 
53 0 0 0 
57 0 0 0 
61 0 0 0 
65 0 0 0 
69 0 0 0 
73 0 0 0 
77 0 0 0 
81 0 0 0 
85 0 0 0 
89 0 0 0 
93 0 0 0 
97 0 0 0 
101 0 0 0 
105 0 0 0 
109 0 0 0 
113 0 0 0 
117 0 0 0 
121 0 0 0 
125 0 0 0 
129 0 0 0 
133 0 0 0 
137 0 0 0 
141 0 0 0 
145 0 0 0 
149 0 0 0 
153 0 0 0 
157 0 0 0 
161 0 0 0 
165 0 0 0 
169 0 0 0 
173 0 0 0 
177 0 0 0 
181 0 0 0 
185 0 0 0 
189 0 0 0 
2 0 0 0 
6 0 0 0 
10 0 0 0 
14 0 0 0 
18 0 0 0 
22 0 0 0 
26 0 0 0 
30 0 0 0 
34 0 0 0 
38 0 0 0 
42 0 0 0 
46 0 0 0 
50 0 0 0 
54 0 0 0 
58 0 0 0 
62 0 0 0 
66 0 0 0 
70 0 0 0 
74 0 0 0 
78 0 0 0 
82 0 0 0 
86 0 0 0 
90 0 0 0 
94 0 0 0 
98 0 0 0 
102 0 0 0 
106 0 0 0 
110 0 0 0 
114 0 0 0 
118 0 0 0 
122 0 0 0 
126 0 0 0 
130 0 0 0 
134 0 0 0 
138 0 0 0 
142 0 0 0 
146 0 0 0 
150 0 0 0 
154 0 0 0 
158 0 0 0 
162 0 0 0 
166 0 0 0 
170 0 0 0 
174 0 0 0 
178 0 0 0 
182 0 0 0 
186 0 0 0 
190 0 0 0 
3 0 0 0 
7 0 0 0 
11 0 0 0 
15 0 0 0 
19 0 0 0 
23 0 0 0 
27 0 0 0 
31 0 0 0 
35 0 0 0 
39 0 0 0 
43 0 0 0 
47 0 0 0 
51 0 0 0 
55 0 0 0 
59 0 0 0 
63 0 0 0 
67 0 0 0 
71 0 0 0 
75 0 0 0 
79 0 0 0 
83 0 0 0 
87 0 0 0 
91 0 0 0 
95 0 0 0 
99 0 0 0 
103 0 0 0 
107 0 0 0 
111 0 0 0 
115 0 0 0 
119 0 0 0 
123 0 0 0 
127 0 0 0 
131 0 0 0 
135 0 0 0 
139 0 0 0 
143 0 0 0 
147 0 0 0 
151 0 0 0 
155 0 0 0 
159 0 0 0 
163 0 0 0 
167 0 0 0 
171 0 0 0 
175 0 0 0 
179 0 0 0 
183 0 0 0 
187 0 0 0 
191 0 0 0 
4 0 0 0 
8 0 0 0 
12 0 0 0 
16 0 0 0 
20 0 0 0 
24 0 0 0 
28 0 0 0 
32 0 0 0 
36 0 0 0 
40 0 0 0 
44 0 0 0 
48 0 0 0 
52 0 0 0 
56 0 0 0 
60 0 0 0 
64 0 0 0 
68 0 0 0 
72 0 0 0 
76 0 0 0 
80 0 0 0 
84 0 0 0 
88 0 0 0 
92 0 0 0 
96 0 0 0 
100 0 0 0 
104 0 0 0 
108 0 0 0 
112 0 0 0 
116 0 0 0 
120 0 0 0 
124 0 0 0 
128 0 0 0 
132 0 0 0 
136 0 0 0 
140 0 0 0 
144 0 0 0 
148 0 0 0 
152 0 0 0 
156 0 0 0 
160 0 0 0 
164 0 0 0 
168 0 0 0 
172 0 0 0 
176 0 0 0 
180 0 0 0 
184 0 0 0 
188 0 0 0 
192 0 0 0 
ITEM: TIMESTEP
26000
ITEM: NUMBER OF SURFS
192
ITEM: BOX BOUNDS oo rr rr
0 0.0005
0 0.0005
0 0.0005
ITEM: SURFS id f_f_drag_blocks[1] f_f_drag_blocks[2] f_f_drag_blocks[3] 
1 1.10086e-10 5.48736e-11 6.34812e-11 
5 2.49824e-10 1.60744e-10 6.21245e-11 
9 2.53991e-10 1.86209e-10 -7.67971e-11 
13 1.25152e-10 1.05042e-10 -1.05528e-10 
17 2.2612e-10 4.083e-11 1.4836e-10 
21 4.50302e-10 9.41217e-11 1.07452e-10 
25 5.4943e-10 1.32261e-10 -1.11777e-10 
29 3.09871e-10 7.43456e-11 -2.13553e-10 
33 2.11381e-10 -4.765e-11 1.29396e-10 
37 4.64414e-10 -8.7546e-11 9.12266e-11 
41 5.3362e-10 -1.13291e-10 -1.20234e-10 
45 2.97365e-10 -7.56082e-11 -1.89202e-10 
49 1.37831e-10 -7.79361e-11 7.28744e-11 
53 2.21873e-10 -1.29486e-10 4.61436e-11 
57 2.52801e-10 -1.74869e-10 -4.66318e-11 
61 1.47246e-10 -1.01939e-10 -9.31431e-11 
65 7.71022e-11 1.22103e-10 9.39669e-11 
69 1.18586e-10 1.63321e-10 4.54268e-11 
73 1.24707e-10 1.66663e-10 -4.3739e-11 
77 8.12938e-11 8.81682e-11 -6.73987e-11 
81 2.37888e-11 9.06591e-11 6.35484e-11 
85 4.8326e-11 1.93959e-10 5.14116e-11 
89 8.72825e-11 2.72126e-10 -5.06689e-11 
93 5.24026e-11 1.40388e-10 -9.76078e-11 
97 -2.74688e-12 6.27696e-11 3.6691e-11 
101 -1.45327e-11 1.07469e-10 2.12336e-11 
105 -1.1235e-11 6.06936e-11 -6.0682e-12 
109 -9.67295e-12 6.02422e-11 -4.66757e-11 
113 -9.76129e-12 1.483e-11 1.1251e-11 
117 -5.96527e-12 2.04389e-11 1.02954e-12 
121 -8.60349e-12 2.15853e-11 -6.68376e-12 
125 -5.02961e-12 1.16368e-11 -5.14649e-12 
129 6.80158e-11 6.92846e-11 9.72187e-11 
133 1.74063e-10 5.14036e-11 2.06297e-10 
137 1.49705e-10 -4.56924e-11 1.88098e-10 
141 9.01485e-11 -8.34783e-11 1.00135e-10 
145 3.08038e-11 6.82339e-11 1.02681e-10 
149 6.75558e-11 6.63049e-11 2.34714e-10 
153 8.43074e-11 -5.09787e-11 2.28478e-10 
157 4.10172e-11 -8.28391e-11 1.14212e-10 
161 1.08366e-12 4.60603e-11 5.15617e-11 
165 -1.33584e-11 1.8514e-11 8.58125e-11 
169 -8.72091e-12 -1.61118e-11 8.00502e-11 
173 -1.47596e-11 -4.88139e-11 7.05527e-11 
177 -7.42443e-12 1.17783e-11 3.07961e-11 
181 -6.97584e-12 5.39066e-12 1.72233e-11 
185 -5.3892e-12 -1.01356e-12 1.0965e-11 
189 -1.01651e-11 -1.25113e-11 1.50823e-11 
2 1.08692e-10 8.35876e-11 6.47697e-11 
6 2.00991e-10 1.35148e-10 4.34532e-11 
10 2.65045e-10 1.5054e-10 -5.68089e-11 
14 1.28769e-10 6.94977e-11 -7.00401e-11 
18 2.82196e-10 6.88719e-11 1.78678e-10 
22 5.06056e-10 1.17112e-10 1.0273e-10 
26 4.96101e-10 1.06078e-10 -9.4525e-11 
30 1.87947e-10 3.13288e-11 -1.0745e-10 
34 3.03041e-10 -5.97204e-11 1.98241e-10 
38 5.89298e-10 -1.24557e-10 1.33291e-10 
42 5.05155e-10 -9.98582e-11 -1.1836e-10 
46 2.57004e-10 -3.48283e-11 -1.72272e-10 
50 1.28389e-10 -8.78814e-11 1.00819e-10 
54 2.43272e-10 -1.5873e-10 5.49772e-11 
58 2.78797e-10 -1.72424e-10 -7.32813e-11 
62 1.02366e-10 -6.68611e-11 -6.34717e-11 
66 1.09689e-10 1.19455e-10 8.15471e-11 
70 1.19736e-10 1.68398e-10 2.99065e-11 
74 7.38705e-11 9.97641e-11 -1.91129e-11 
78 5.76408e-11 8.15887e-11 -5.4437e-11 
82 3.58769e-11 8.55803e-11 6.3637e-11 
86 7.31681e-11 2.43918e-10 4.59788e-11 
90 4.99177e-11 1.49023e-10 -2.8602e-11 
94 1.97728e-11 8.46243e-11 -5.67742e-11 
98 -8.83289e-12 5.01215e-11 3.77821e-11 
102 -1.23404e-11 1.22108e-10 3.24572e-11 
106 -2.22951e-11 1.18906e-10 -2.3832e-11 
110 -4.70283e-12 2.20077e-11 -1.50985e-11 
114 -1.22046e-11 2.30644e-11 1.85393e-11 
118 -9.51299e-12 2.0488e-11 6.41299e-12 
122 -1.05427e-11 2.93248e-11 -7.48038e-12 
126 -1.34056e-13 5.65789e-12 -5.33193e-12 
130 5.35599e-11 4.34027e-11 7.21913e-11 
134 9.19149e-11 2.789e-11 1.1141e-10 
138 6.8415e-11 -2.28201e-11 1.08578e-10 
142 5.9424e-11 -5.23367e-11 9.3339e-11 
146 3.23934e-11 7.23227e-11 1.16476e-10 
150 6.73953e-11 4.31215e-11 2.29788e-10 
154 4.53531e-11 -2.46409e-11 1.36867e-10 
158 1.90084e-11 -5.29448e-11 9.36155e-11 
162 -7.73724e-12 4.46783e-11 6.93679e-11 
166 -1.79911e-11 2.64536e-11 8.80538e-11 
170 -1.02974e-11 -1.46083e-11 6.06434e-11 
174 1.0044e-12 -3.12876e-11 4.95793e-11 
178 -7.87644e-12 8.68121e-12 8.19416e-12 
182 -1.90758e-11 7.25289e-12 3.70526e-11 
186 -7.35892e-12 -3.79414e-12 1.09517e-11 
190 -1.23951e-11 -1.72811e-11 2.31586e-11 
3 -4.92654e-12 2.59572e-12 6.1444e-12 
7 -1.92165e-12 2.25584e-12 -2.72717e-13 
11 -8.21404e-12 5.68028e-12 -9.59524e-13 
15 -1.45181e-11 1.18109e-11 -1.49933e-11 
19 -2.19284e-12 1.11193e-12 3.09369e-12 
23 -6.01571e-12 1.7247e-12 7.90373e-13 
27 -6.95236e-12 8.99001e-13 -1.3302e-12 
31 -1.11549e-11 4.71622e-12 -1.03876e-11 
35 -1.00983e-11 -3.86008e-12 8.56643e-12 
39 -1.2185e-11 4.52983e-13 1.71507e-12 
43 -1.91813e-11 -8.00127e-12 -2.79363e-12 
47 -4.37188e-12 -5.67609e-12 -8.4979e-12 
51 -4.46328e-12 -3.65953e-12 3.63551e-12 
55 -1.12761e-11 -8.67538e-12 3.41133e-12 
59 -1.33114e-11 -8.78132e-12 -3.59019e-12 
63 -4.09314e-12 -2.22486e-12 -2.84877e-12 
67 7.82888e-11 -9.57317e-11 7.9565e-11 
71 1.4354e-10 -1.96739e-10 6.12914e-11 
75 1.88309e-10 -2.39057e-10 -6.25812e-11 
79 9.14645e-11 -9.792e-11 -8.78641e-11 
83 2.00609e-11 -8.26573e-11 6.15432e-11 
87 5.35893e-11 -1.86289e-10 4.43722e-11 
91 6.30133e-11 -2.13384e-10 -5.16364e-11 
95 3.68905e-11 -1.19432e-10 -8.82067e-11 
99 2.03218e-12 -2.89987e-11 2.55814e-11 
103 -1.10561e-12 -7.9783e-11 1.59596e-11 
107 -1.40579e-11 -1.24163e-10 -2.31898e-11 
111 -1.04572e-11 -4.40375e-11 -2.99529e-11 
115 -2.4433e-12 -5.48831e-12 2.52525e-12 
119 -1.02504e-11 -2.7547e-11 1.84195e-12 
123 -1.22964e-11 -2.75999e-11 -3.09097e-12 
127 -1.73495e-11 -2.32985e-11 -1.37692e-11 
131 5.66973e-11 5.97108e-11 -6.30624e-11 
135 1.46725e-10 3.97132e-11 -1.9142e-10 
139 1.48572e-10 -5.12631e-11 -1.85861e-10 
143 6.65376e-11 -5.33238e-11 -7.79383e-11 
147 1.89812e-11 5.62285e-11 -8.16145e-11 
151 6.0751e-11 5.1001e-11 -2.16567e-10 
155 7.15004e-11 -4.28702e-11 -2.20877e-10 
159 4.65406e-11 -8.58087e-11 -1.23152e-10 
163 -1.18887e-11 4.33431e-11 -5.98654e-11 
167 -8.21149e-12 1.55948e-11 -8.99332e-11 
171 -1.41278e-11 -2.12764e-11 -1.22451e-10 
175 -7.87202e-12 -3.63348e-11 -5.17431e-11 
179 -8.87152e-12 7.051e-12 -1.3362e-11 
183 -3.21951e-12 1.6745e-12 -8.70959e-12 
187 -4.71868e-12 -6.75608e-13 -8.88077e-12 
191 -1.46369e-11 -1.15769e-11 -2.01892e-11 
4 -5.25554e-12 5.99481e-12 4.29953e-12 
8 -7.37032e-12 6.82449e-12 -2.99356e-12 
12 -7.49529e-12 1.65316e-12 6.73899e-13 
16 -5.88188e-12 2.48163e-12 -5.71042e-12 
20 -5.686e-12 2.02482e-12 5.74862e-12 
24 -7.13171e-12 5.32759e-13 3.02283e-12 
28 -1.5728e-11 2.57705e-12 -5.57127e-12 
32 -6.53161e-12 1.06615e-12 -4.86114e-12 
36 -1.67914e-11 -7.994e-12 1.5834e-11 
40 -4.37522e-12 8.44924e-14 1.66538e-12 
44 -1.5682e-11 -4.77051e-12 -5.09897e-12 
48 -6.40063e-12 -6.60851e-13 -5.7202e-12 
52 -9.25525e-12 -5.62471e-12 1.11353e-11 
56 -1.08518e-11 -8.55163e-12 5.64278e-12 
60 -9.75619e-12 -3.13711e-12 -2.55657e-12 
64 -7.34426e-12 -7.50087e-12 -2.54017e-12 
68 1.05887e-10 -1.02788e-10 8.25091e-11 
72 1.66298e-10 -2.06787e-10 3.82488e-11 
76 8.47833e-11 -1.17272e-10 -2.25891e-11 
80 4.20435e-11 -6.51817e-11 -3.383e-11 
84 4.26791e-11 -1.14464e-10 8.09123e-11 
88 6.64187e-11 -1.73471e-10 2.57077e-11 
92 4.51841e-11 -1.71846e-10 -2.86168e-11 
96 2.65749e-11 -9.28971e-11 -6.32683e-11 
100 -5.20601e-12 -5.12232e-11 3.53156e-11 
104 -1.90317e-11 -1.37099e-10 3.75475e-11 
108 -1.87526e-11 -8.95751e-11 -1.9433e-11 
112 -3.06282e-12 -4.55735e-11 -2.77433e-11 
116 -1.22285e-11 -1.68751e-11 1.56131e-11 
120 -9.34507e-12 -1.48438e-11 4.54471e-12 
124 -1.59508e-11 -2.90225e-11 -6.68174e-12 
128 -6.15235e-12 -1.25453e-11 -1.06757e-11 
132 7.61638e-11 6.70926e-11 -8.79284e-11 
136 1.37841e-10 3.98826e-11 -1.74146e-10 
140 8.91321e-11 -2.25122e-11 -1.30157e-10 
144 5.24279e-11 -5.23417e-11 -8.65955e-11 
148 3.50943e-11 5.49135e-11 -1.05807e-10 
152 4.80275e-11 2.76205e-11 -1.73564e-10 
156 4.80668e-11 -3.09443e-11 -1.84711e-10 
160 1.06721e-11 -3.73335e-11 -4.80593e-11 
164 -1.733e-11 5.88797e-11 -8.56179e-11 
168 -2.06389e-11 3.27004e-11 -1.1731e-10 
172 -2.12084e-11 -1.8623e-11 -1.15988e-10 
176 -8.1394e-12 -2.63084e-11 -4.369e-11 
180 -5.12179e-12 9.82826e-12 -1.04864e-11 
184 -1.80971e-11 1.06411e-11 -2.26089e-11 
188 -1.77369e-11 -1.05048e-11 -3.53085e-11 
192 -3.65402e-12 -2.85235e-12 -2.76067e-12 
ITEM: TIMESTEP
27000
ITEM: NUMBER OF SURFS
192
ITEM: BOX BOUNDS oo rr rr
0 0.0005
0 0.0005
0 0.0005
ITEM: SURFS id f_f_drag_blocks[1] f_f_drag_blocks[2] f_f_drag_blocks[3] 
1 1.11497e-10 7.79675e-11 8.52515e-11 
5 2.14397e-10 1.40807e-10 4.98348e-11 
9 3.27119e-10 2.18034e-10 -6.43829e-11 
13 1.82251e-10 1.41259e-10 -1.3939e-10 
17 2.22879e-10 5.13127e-11 1.47345e-10 
21 4.88042e-10 1.01605e-10 1.20238e-10 
25 6.04494e-10 1.43069e-10 -1.3986e-10 
29 2.8202e-10 7.17732e-11 -1.88314e-10 
33 1.7057e-10 -3.59773e-11 1.02159e-10 
37 4.50836e-10 -8.36728e-11 9.7238e-11 
41 4.99843e-10 -1.00361e-10 -1.11291e-10 
45 3.23829e-10 -8.82087e-11 -1.92024e-10 
49 1.25564e-10 -6.82734e-11 6.66717e-11 
53 2.27921e-10 -1.43041e-10 3.89254e-11 
57 2.01415e-10 -1.37142e-10 -3.53132e-11 
61 1.39634e-10 -9.75997e-11 -8.5503e-11 
65 5.82491e-11 8.53592e-11 6.6351e-11 
69 1.13472e-10 1.57457e-10 3.47386e-11 
73 1.1708e-10 1.4525e-10 -4.17352e-11 
77 9.12819e-11 1.00087e-10 -8.52658e-11 
81 2.17526e-11 7.5472e-11 5.7366e-11 
85 4.53325e-11 1.61334e-10 3.99776e-11 
89 6.21356e-11 2.10053e-10 -5.67861e-11 
93 3.87757e-11 1.35006e-10 -1.00119e-10 
97 -5.19133e-12 3.5197e-11 2.61531e-11 
101 -2.3658e-11 1.12754e-10 3.02007e-11 
105 -1.84265e-11 1.55079e-10 -3.12778e-11 
109 -1.04252e-11 4.94079e-11 -3.38837e-11 
113 -1.43855e-11 2.70948e-11 1.10862e-11 
117 -7.69723e-12 1.84479e-11 9.25862e-13 
121 -9.58518e-12 1.52953e-11 5.06538e-13 
125 -1.32417e-11 1.97709e-11 -1.67932e-11 
129 5.92382e-11 6.82127e-11 8.28076e-11 
133 1.10895e-10 3.4697e-11 1.65795e-10 
137 1.24787e-10 -3.7625e-11 1.62658e-10 
141 8.645e-11 -8.11552e-11 9.86616e-11 
145 3.09229e-11 6.37534e-11 9.41237e-11 
149 5.06176e-11 6.26591e-11 2.25133e-10 
153 6.40612e-11 -4.97982e-11 1.79056e-10 
157 4.78235e-11 -1.01273e-10 1.16368e-10 
161 -1.32041e-11 3.44035e-11 4.55118e-11 
165 -7.03e-12 2.00341e-11 1.20023e-10 
169 -7.136e-12 -2.51322e-11 9.42024e-11 
173 -1.44946e-11 -3.93615e-11 4.95272e-11 
177 -5.87563e-12 8.38116e-12 1.7527e-11 
181 -4.60728e-12 4.47655e-12 9.47736e-12 
185 -1.46063e-11 -4.56445e-12 2.22341e-11 
189 -1.19197e-11 -1.51523e-11 2.08501e-11 
2 1.19686e-10 7.79785e-11 7.68948e-11 
6 2.38809e-10 1.61584e-10 4.53777e-11 
10 1.90659e-10 1.00868e-10 -2.75682e-11 
14 1.41172e-10 6.33004e-11 -6.86062e-11 
18 2.50838e-10 5.49495e-11 1.58515e-10 
22 5.0171e-10 1.22479e-10 1.02613e-10 
26 4.62482e-10 8.19758e-11 -9.70909e-11 
30 1.8211e-10 4.38388e-11 -1.25475e-10 
34 2.41195e-10 -7.44474e-11 1.6362e-10 
38 5.81952e-10 -1.17236e-10 1.2124e-10 
42 5.02078e-10 -9.72926e-11 -1.09324e-10 
46 2.0693e-10 -4.6395e-11 -1.50269e-10 
50 1.0181e-10 -8.10331e-11 8.5779e-11 
54 2.42046e-10 -1.78243e-10 6.98489e-11 
58 2.40457e-10 -1.65093e-10 -5.62767e-11 
62 1.26138e-10 -7.21044e-11 -8.5902e-11 
66 9.66188e-11 1.27702e-10 7.44537e-11 
70 1.27202e-10 1.64008e-10 3.15572e-11 
74 1.02618e-10 1.39676e-10 -2.38899e-11 
78 5.58751e-11 8.58462e-11 -5.24632e-11 
82 2.45145e-11 8.91722e-11 5.63783e-11 
86 6.7029e-11 2.19253e-10 4.04789e-11 
90 6.11703e-11 1.79175e-10 -3.8992e-11 
94 1.98272e-11 7.45822e-11 -4.84139e-11 
98 -1.22155e-11 6.2629e-11 3.9882e-11 
102 -1.91724e-11 1.22138e-10 2.75195e-11 
106 -1.90542e-11 1.10383e-10 -2.65659e-11 
110 -1.32826e-11 6.53709e-11 -4.14538e-11 
114 -1.61155e-11 1.83853e-11 2.02978e-11 
118 -3.02555e-11 4.06379e-11 4.58609e-12 
122 -1.99862e-11 2.50805e-11 -2.2302e-12 
126 -2.83728e-12 9.4304e-12 -8.47258e-12 
130 8.63128e-11 6.70453e-11 9.54999e-11 
134 1.40524e-10 4.0925e-11 1.81127e-10 
138 7.30407e-11 -1.84437e-11 1.1287e-10 
142 4.6399e-11 -4.00306e-11 6.62687e-11 
146 2.8787e-11 6.23431e-11 1.06618e-10 
150 6.32456e-11 4.72488e-11 2.05492e-10 
154 3.72742e-11 -2.58573e-11 1.48472e-10 
158 3.32475e-11 -5.56069e-11 9.5215e-11 
162 -4.49161e-12 4.77662e-11 6.74741e-11 
166 -9.97636e-12 1.67803e-11 7.89369e-11 
170 -4.91128e-12 -2.06856e-11 1.01958e-10 
174 -5.77567e-12 -5.30888e-11 6.02887e-11 
178 -1.1251e-11 1.66936e-11 1.43742e-11 
182 -2.68244e-11 7.01855e-12 4.89358e-11 
186 -9.9042e-12 -3.8928e-12 1.57161e-11 
190 -3.79748e-12 -1.04058e-11 1.16874e-11 
3 -6.63661e-12 3.13242e-12 6.87053e-12 
7 -5.01886e-12 3.40153e-12 -1.51106e-12 
11 -1.91146e-11 1.52041e-11 -4.51957e-12 
15 -1.23162e-11 1.04235e-11 -1.33017e-11 
19 -3.14118e-12 1.28736e-12 2.53546e-12 
23 -2.10127e-11 3.68564e-12 4.17767e-12 
27 -1.42668e-11 4.13514e-12 -5.70377e-12 
31 -2.24906e-11 2.25695e-12 -1.58793e-11 
35 -2.60096e-12 -2.21008e-12 1.26024e-12 
39 -4.49184e-12 9.00538e-13 3.52923e-12 
43 -8.66519e-12 -5.00831e-12 4.3042e-13 
47 -9.51056e-12 -4.43971e-12 -1.09533e-11 
51 -2.41821e-12 -1.0685e-12 2.34459e-12 
55 -3.49504e-12 -3.62932e-12 2.9399e-13 
59 -7.5217e-12 -5.96377e-12 -4.58533e-12 
63 -6.62909e-12 -5.68726e-12 -9.62674e-12 
67 6.85271e-11 -8.77881e-11 7.95685e-11 
71 1.30407e-10 -1.64443e-10 5.64787e-11 
75 1.3462e-10 -1.60389e-10 -3.92844e-11 
79 7.91118e-11 -8.66968e-11 -7.66181e-11 
83 1.95463e-11 -6.79494e-11 5.27734e-11 
87 6.62953e-11 -2.3221e-10 6.59453e-11 
91 7.79154e-11 -2.45053e-10 -6.5894e-11 
95 3.48306e-11 -1.21959e-10 -7.72233e-11 
99 -1.46385e-12 -2.81634e-11 1.40523e-11 
103 -1.35185e-11 -8.65959e-11 1.85538e-11 
107 -1.26209e-11 -7.6773e-11 -1.55025e-11 
111 -1.47759e-11 -6.05613e-11 -4.3498e-11 
115 -8.3634e-12 -2.21377e-11 1.14267e-11 
119 -9.8219e-12 -1.73132e-11 5.78915e-12 
123 -2.15854e-11 -3.38833e-11 -6.32185e-12 
127 -1.48803e-11 -2.13461e-11 -1.72612e-11 
131 6.23089e-11 5.98161e-11 -8.64193e-11 
135 1.47324e-10 3.98602e-11 -2.02073e-10 
139 1.38818e-10 -5.05276e-11 -1.91883e-10 
143 8.54961e-11 -7.90478e-11 -9.45021e-11 
147 2.89168e-11 7.50521e-11 -1.05961e-10 
151 5.73175e-11 5.88517e-11 -2.17556e-10 
155 5.91918e-11 -5.83317e-11 -2.19062e-10 
159 3.62286e-11 -6.95608e-11 -1.04115e-10 
163 -4.72527e-12 3.46895e-11 -5.42471e-11 
167 -1.42428e-11 2.64225e-11 -9.07623e-11 
171 -2.00423e-11 -2.53102e-11 -9.61358e-11 
175 -1.41526e-11 -3.37979e-11 -6.4436e-11 
179 -6.13966e-12 7.71533e-12 -1.28467e-11 
183 -1.02076e-11 2.21114e-12 -3.69432e-11 
187 -1.04194e-11 -4.74231e-12 -1.92519e-11 
191 -4.48674e-12 -9.71407e-13 -8.35638e-12 
4 -5.5809e-12 3.87415e-12 3.58106e-12 
8 -6.17795e-12 2.63286e-12 2.02625e-12 
12 -1.33176e-11 7.18617e-12 -4.02978e-12 
16 -2.46432e-12 1.78138e-12 2.98101e-13 
20 -3.55428e-12 7.14543e-13 3.14998e-12 
24 -1.10018e-11 1.52922e-12 1.43763e-12 
28 -9.32695e-12 4.31943e-12 -1.96272e-12 
32 -6.39057e-12 6.32044e-13 -4.66234e-12 
36 -3.14983e-12 -1.50954e-12 4.39661e-12 
40 -7.30411e-12 -2.30985e-12 8.21138e-13 
44 -1.2244e-11 -4.82362e-12 -7.0289e-12 
48 -6.31085e-12 -1.46458e-12 -9.32282e-12 
52 -1.14233e-11 -1.81458e-11 1.34671e-11 
56 -2.4159e-11 -2.10453e-11 9.735e-12 
60 -2.32094e-12 -2.61302e-12 -2.45171e-12 
64 -9.84794e-12 -9.5852e-12 -1.07578e-11 
68 9.77129e-11 -1.04593e-10 6.94499e-11 
72 1.25841e-10 -1.69005e-10 3.40903e-11 
76 1.09923e-10 -1.4537e-10 -2.74886e-11 
80 2.7905e-11 -5.6943e-11 -2.54129e-11 
84 3.3986e-11 -8.92082e-11 6.32036e-11 
88 7.70795e-11 -2.31602e-10 6.07314e-11 
92 3.68181e-11 -1.59884e-10 -3.26449e-11 
96 3.13462e-11 -9.15229e-11 -5.3102e-11 
100 -1.96877e-11 -5.34248e-11 3.83407e-11 
104 -2.04237e-11 -9.91063e-11 3.0002e-11 
108 -1.21728e-11 -1.16954e-10 -2.89464e-11 
112 -6.48945e-12 -5.27214e-11 -4.81629e-11 
116 -4.78779e-12 -4.5863e-12 4.0008e-12 
120 -9.03913e-12 -1.10867e-11 2.22916e-12 
124 -1.62503e-11 -3.00678e-11 -8.1087e-12 
128 -6.37461e-12 -1.60909e-11 -7.42472e-12 
132 7.3665e-11 6.55884e-11 -1.04244e-10 
136 8.97574e-11 1.7082e-11 -1.02099e-10 
140 8.134e-11 -1.99993e-11 -1.30825e-10 
144 2.73178e-11 -2.35926e-11 -5.58655e-11 
148 2.5771e-11 4.57194e-11 -7.04834e-11 
152 5.9426e-11 5.4715e-11 -1.99481e-10 
156 5.24594e-11 -2.49571e-11 -1.68051e-10 
160 2.52821e-11 -5.63939e-11 -9.3295e-11 
164 -1.21415e-11 4.70372e-11 -6.05453e-11 
168 -9.99066e-12 1.63668e-11 -8.86121e-11 
172 -1.25392e-11 -3.88977e-11 -1.16933e-10 
176 -4.78756e-12 -3.41258e-11 -5.0274e-11 
180 -2.11643e-11 2.46231e-11 -2.95666e-11 
184 -9.46383e-12 4.49295e-12 -1.52048e-11 
188 -2.1808e-11 -1.40627e-11 -3.75734e-11 
192 -1.60843e-12 -4.95443e-12 -2.36821e-12 
ITEM: TIMESTEP
28000
ITEM: NUMBER OF SURFS
192
ITEM: BOX BOUNDS oo rr rr
0 0.0005
0 0.0005
0 0.0005
ITEM: SURFS id f_f_drag_blocks[1] f_f_drag_blocks[2] f_f_drag_blocks[3] 
1 1.1963e-10 7.26197e-11 7.97737e-11 
5 2.60234e-10 1.64869e-10 6.65592e-11 
9 2.54355e-10 1.59941e-10 -6.01815e-11 
13 1.41132e-10 1.14368e-10 -1.14124e-10 
17 1.95499e-10 3.3462e-11 1.18271e-10 
21 5.89238e-10 1.22639e-10 1.3787e-10 
25 5.31154e-10 1.18364e-10 -1.20584e-10 
29 2.26854e-10 4.52714e-11 -1.58568e-10 
33 2.14207e-10 -4.13324e-11 1.2968e-10 
37 5.73662e-10 -1.07024e-10 1.05211e-10 
41 5.9201e-10 -1.44908e-10 -1.13458e-10 
45 2.71517e-10 -6.37531e-11 -1.58118e-10 
49 1.07884e-10 -5.3432e-11 5.57189e-11 
53 1.95009e-10 -1.03952e-10 3.79285e-11 
57 2.30495e-10 -1.56342e-10 -5.57217e-11 
61 1.00688e-10 -7.547e-11 -5.89806e-11 
65 6.01695e-11 7.18128e-11 5.44244e-11 
69 1.48934e-10 2.03594e-10 5.80105e-11 
73 1.3525e-10 1.65567e-10 -4.33535e-11 
77 1.22889e-10 1.2322e-10 -1.13276e-10 
81 2.64528e-11 1.23161e-10 8.31223e-11 
85 5.78886e-11 2.05399e-10 4.92454e-11 
89 7.26131e-11 2.06303e-10 -5.97365e-11 
93 3.8982e-11 1.07931e-10 -7.48063e-11 
97 -4.42573e-12 6.55422e-11 3.53007e-11 
101 -1.29188e-11 9.96156e-11 1.87448e-11 
105 -1.59663e-11 1.13901e-10 -2.34171e-11 
109 -2.35596e-11 7.46179e-11 -5.19714e-11 
113 -3.82143e-12 7.86895e-12 5.02003e-12 
117 -9.30509e-12 2.05746e-11 1.82329e-12 
121 -5.48115e-12 1.66802e-11 -2.73337e-12 
125 -2.00302e-13 3.40752e-12 -4.4362e-12 
129 7.843e-11 7.50434e-11 1.03284e-10 
133 8.89927e-11 3.21859e-11 1.28059e-10 
137 2.09972e-10 -7.5475e-11 2.56339e-10 
141 1.08327e-10 -8.72468e-11 1.07813e-10 
145 2.25899e-11 5.11738e-11 7.54038e-11 
149 5.75294e-11 5.07943e-11 2.256e-10 
153 5.22494e-11 -3.0386e-11 1.76856e-10 
157 3.83232e-11 -8.25166e-11 1.01162e-10 
161 -2.62772e-12 3.71327e-11 6.36345e-11 
165 -9.45521e-12 1.70439e-11 7.49979e-11 
169 -2.51539e-11 -3.2674e-11 1.46981e-10 
173 -9.79221e-12 -3.07011e-11 4.37421e-11 
177 -1.19523e-11 2.01825e-11 2.22316e-11 
181 -1.99835e-11 7.64093e-12 2.63721e-11 
185 -3.35535e-12 -4.48376e-12 1.10729e-11 
189 -1.65951e-12 -4.788e-12 2.49168e-12 
2 1.60521e-10 1.17681e-10 9.33337e-11 
6 1.63224e-10 1.04069e-10 3.26954e-11 
10 1.90713e-10 1.22201e-10 -3.02987e-11 
14 1.25635e-10 7.70704e-11 -7.89156e-11 
18 3.01103e-10 8.242e-11 1.86839e-10 
22 5.32328e-10 1.28357e-10 1.01405e-10 
26 4.96988e-10 9.54602e-11 -9.68858e-11 
30 2.79208e-10 4.90381e-11 -1.65891e-10 
34 2.54705e-10 -6.40652e-11 1.6171e-10 
38 5.82554e-10 -1.26364e-10 1.38527e-10 
42 5.69445e-10 -1.2914e-10 -1.33e-10 
46 2.09546e-10 -3.63654e-11 -1.30393e-10 
50 1.2943e-10 -9.99268e-11 1.03395e-10 
54 2.99309e-10 -1.9029e-10 7.52666e-11 
58 2.85312e-10 -1.6502e-10 -6.5109e-11 
62 1.36547e-10 -8.09934e-11 -8.93423e-11 
66 6.85814e-11 6.92275e-11 5.21922e-11 
70 8.79876e-11 1.17195e-10 3.51828e-11 
74 1.02943e-10 1.45598e-10 -2.69952e-11 
78 3.7136e-11 5.5629e-11 -2.80118e-11 
82 3.30752e-11 9.96966e-11 7.28258e-11 
86 7.29372e-11 1.96885e-10 4.57075e-11 
90 5.1955e-11 1.77542e-10 -4.01827e-11 
94 2.0993e-11 8.58227e-11 -5.30815e-11 
98 -1.94441e-11 9.61006e-11 6.56886e-11 
102 -1.11933e-11 6.14625e-11 2.37768e-11 
106 -9.95447e-12 1.03674e-10 -1.99295e-11 
110 -1.13357e-11 4.64226e-11 -3.22948e-11 
114 -9.86988e-12 1.08726e-11 1.3405e-11 
118 -8.40381e-12 1.49049e-11 3.06621e-12 
122 -2.24588e-11 3.79575e-11 -8.69058e-12 
126 -6.22921e-13 3.70528e-12 -2.69023e-12 
130 7.79031e-11 5.11377e-11 8.23939e-11 
134 1.09165e-10 2.39394e-11 1.28749e-10 
138 6.97696e-11 -2.47811e-11 1.02e-10 
142 3.83029e-11 -3.88215e-11 6.30179e-11 
146 4.36507e-11 9.40612e-11 1.43012e-10 
150 6.1788e-11 4.90327e-11 1.89132e-10 
154 5.45234e-11 -3.79674e-11 2.07685e-10 
158 2.20083e-11 -4.14482e-11 8.5333e-11 
162 8.00748e-13 7.15684e-11 8.86609e-11 
166 -9.06321e-12 2.53329e-11 1.07454e-10 
170 -1.3073e-11 -2.15316e-11 6.72899e-11 
174 -8.21289e-12 -4.63645e-11 7.14583e-11 
178 -7.50583e-12 8.7172e-12 1.27585e-11 
182 -9.99064e-12 3.81629e-12 2.33632e-11 
186 -1.20584e-11 -9.9567e-12 2.75393e-11 
190 -1.76143e-11 -1.71494e-11 2.37527e-11 
3 -1.65039e-11 1.27882e-11 1.39272e-11 
7 -4.20647e-12 2.4501e-12 1.01816e-12 
11 -4.33904e-12 3.52409e-12 7.12481e-13 
15 -1.25333e-11 1.5138e-11 -1.49192e-11 
19 -1.12e-11 4.28687e-13 6.30178e-12 
23 -9.80991e-12 1.89489e-14 3.30706e-12 
27 -1.48249e-11 2.19586e-12 -8.1979e-13 
31 -1.57664e-11 4.81718e-12 -1.20719e-11 
35 -2.46357e-12 -7.58028e-14 -9.34833e-13 
39 -1.62275e-11 -8.71638e-12 5.59712e-12 
43 -1.13497e-11 4.47316e-13 -8.78587e-12 
47 -9.82633e-12 -3.29932e-12 -4.68442e-12 
51 -7.36457e-12 -3.9531e-12 5.28601e-12 
55 -5.30294e-12 -2.3775e-12 1.15783e-12 
59 -1.32755e-11 -1.19238e-11 -7.17304e-12 
63 -2.60663e-12 -2.3681e-12 -7.9157e-13 
67 5.5351e-11 -7.48216e-11 5.93328e-11 
71 1.0075e-10 -1.53446e-10 3.92565e-11 
75 1.21783e-10 -1.41994e-10 -3.76528e-11 
79 8.88339e-11 -9.6502e-11 -7.31631e-11 
83 2.33725e-11 -7.81677e-11 6.05886e-11 
87 4.97409e-11 -1.7726e-10 4.98964e-11 
91 6.98696e-11 -2.27007e-10 -6.50565e-11 
95 3.47528e-11 -1.0763e-10 -7.69378e-11 
99 -4.84829e-12 -6.33655e-11 3.56551e-11 
103 -1.50986e-11 -9.91412e-11 1.94618e-11 
107 -1.58442e-11 -9.04338e-11 -1.20428e-11 
111 -7.51333e-12 -4.46114e-11 -2.59338e-11 
115 -4.83901e-12 -1.59398e-11 8.14009e-12 
119 -1.72874e-11 -2.59691e-11 8.60334e-12 
123 -1.01321e-11 -2.1756e-11 -6.09474e-12 
127 -1.44483e-11 -3.01396e-11 -1.7805e-11 
131 6.62967e-11 6.69315e-11 -1.03219e-10 
135 1.14045e-10 3.92517e-11 -1.54702e-10 
139 1.33185e-10 -5.11942e-11 -1.65859e-10 
143 1.09997e-10 -1.05148e-10 -1.34184e-10 
147 1.93636e-11 6.34693e-11 -7.84992e-11 
151 7.59226e-11 5.88283e-11 -2.60869e-10 
155 7.44216e-11 -4.96958e-11 -2.21877e-10 
159 1.9803e-11 -5.57508e-11 -7.41853e-11 
163 -3.6486e-12 2.80741e-11 -5.39435e-11 
167 -6.7744e-12 2.56055e-11 -9.41838e-11 
171 -1.72281e-11 -1.02633e-11 -9.96286e-11 
175 -9.22383e-12 -3.83076e-11 -6.48189e-11 
179 -3.06207e-12 3.57474e-12 -7.99337e-12 
183 -9.39021e-12 3.36211e-12 -1.60112e-11 
187 -5.31901e-12 -7.05924e-13 -6.29307e-12 
191 -8.78117e-12 -5.03847e-12 -7.1534e-12 
4 -8.86015e-12 5.28654e-12 4.87594e-12 
8 -1.04554e-11 8.49576e-12 2.73907e-12 
12 -2.08169e-12 4.63849e-13 1.56318e-12 
16 0 0 0 
20 -9.14147e-12 9.62503e-13 1.1312e-11 
24 -1.8469e-11 3.94012e-12 2.94191e-12 
28 -1.35212e-12 3.27321e-12 -2.46679e-12 
32 -9.38198e-12 6.35524e-12 -1.12856e-11 
36 -2.92689e-12 2.68918e-14 1.56679e-12 
40 -9.72673e-12 -3.67563e-12 2.30873e-12 
44 -1.08844e-11 -4.66652e-12 -4.70541e-12 
48 -6.33258e-12 -3.7105e-13 -5.96516e-12 
52 -1.30205e-11 -1.15825e-11 1.13319e-11 
56 -1.99074e-11 -1.15529e-11 8.55292e-12 
60 -1.06069e-11 -8.97043e-12 -1.66564e-12 
64 -7.78329e-12 -5.2886e-12 -4.59035e-12 
68 7.85297e-11 -1.02558e-10 6.427e-11 
72 1.0998e-10 -1.51268e-10 3.24956e-11 
76 8.21449e-11 -1.02862e-10 -1.09617e-11 
80 8.27762e-11 -1.27039e-10 -7.11264e-11 
84 4.45608e-11 -1.19592e-10 7.60175e-11 
88 5.2681e-11 -2.00995e-10 4.517e-11 
92 4.14123e-11 -1.14061e-10 -1.83262e-11 
96 1.62506e-11 -7.79043e-11 -3.78194e-11 
100 -1.14291e-11 -8.16358e-11 6.28298e-11 
104 -7.26509e-12 -6.44752e-11 2.10817e-11 
108 -9.78362e-12 -1.00446e-10 -2.15431e-11 
112 -1.0003e-11 -5.51233e-11 -3.72794e-11 
116 -7.58123e-12 -1.3475e-11 1.13696e-11 
120 -1.44077e-11 -2.33158e-11 3.92763e-12 
124 -6.70862e-12 -1.67041e-11 -4.50581e-12 
128 -1.11787e-11 -1.70697e-11 -1.21877e-11 
132 1.17428e-10 7.50504e-11 -1.21354e-10 
136 1.1126e-10 3.36844e-11 -1.39008e-10 
140 8.17424e-11 -1.68946e-11 -1.16258e-10 
144 4.23352e-11 -3.40949e-11 -6.95503e-11 
148 5.31059e-11 9.28058e-11 -1.30597e-10 
152 6.25025e-11 4.1968e-11 -2.06573e-10 
156 4.76602e-11 -3.03419e-11 -1.75593e-10 
160 2.45955e-11 -5.98986e-11 -9.99236e-11 
164 -8.64677e-12 3.46143e-11 -4.74102e-11 
168 -1.08086e-11 2.19023e-11 -1.16036e-10 
172 -1.49825e-11 -2.31893e-11 -1.12741e-10 
176 -2.48231e-12 -2.6744e-11 -4.27829e-11 
180 -1.87214e-11 1.88679e-11 -2.34858e-11 
184 -4.02424e-12 2.93135e-13 -1.46339e-11 
188 -9.28728e-12 -7.52716e-12 -2.37351e-11 
192 -2.87144e-12 -6.77188e-12 -1.35874e-11 
ITEM: TIMESTEP
29000
ITEM: NUMBER OF SURFS
192
ITEM: BOX BOUNDS oo rr rr
0 0.0005
0 0.0005
0 0.0005
ITEM: SURFS id f_f_drag_blocks[1] f_f_drag_blocks[2] f_f_drag_blocks[3] 
1 1.31927e-10 7.4796e-11 8.97443e-11 
5 1.97927e-10 1.15369e-10 4.82234e-11 
9 2.36803e-10 1.48609e-10 -4.50685e-11 
13 1.29364e-10 9.4415e-11 -9.66595e-11 
17 2.67716e-10 5.37965e-11 1.80646e-10 
21 5.81958e-10 1.16605e-10 1.3453e-10 
25 5.37081e-10 1.24133e-10 -1.29336e-10 
29 2.457e-10 5.41749e-11 -1.64405e-10 
33 1.9108e-10 -4.07176e-11 1.10837e-10 
37 4.52754e-10 -8.27408e-11 9.00862e-11 
41 5.56565e-10 -1.36737e-10 -1.11722e-10 
45 2.38775e-10 -4.9856e-11 -1.42469e-10 
49 1.09348e-10 -4.81315e-11 5.81006e-11 
53 1.65135e-10 -9.07887e-11 3.80755e-11 
57 2.64936e-10 -1.78579e-10 -4.26982e-11 
61 1.23257e-10 -8.49222e-11 -8.59023e-11 
65 4.58825e-11 6.20473e-11 4.62281e-11 
69 1.53958e-10 2.1406e-10 6.47644e-11 
73 1.72465e-10 2.00555e-10 -4.8841e-11 
77 1.15528e-10 1.32768e-10 -1.14236e-10 
81 1.85294e-11 6.71618e-11 4.5406e-11 
85 6.43635e-11 1.96313e-10 4.58263e-11 
89 6.00264e-11 1.93297e-10 -4.81183e-11 
93 4.89418e-11 1.25681e-10 -1.03953e-10 
97 1.67814e-13 5.23713e-11 3.15887e-11 
101 -1.84217e-11 1.01864e-10 2.45413e-11 
105 -2.14425e-11 6.2979e-11 -1.72958e-11 
109 -1.40552e-11 6.55913e-11 -3.65703e-11 
113 -4.77527e-12 1.37493e-11 5.83943e-12 
117 -1.42103e-11 2.77747e-11 1.06404e-11 
121 -1.08705e-11 1.66336e-11 -3.27125e-12 
125 -5.19791e-12 1.34318e-11 -7.36766e-12 
129 4.83731e-11 6.10196e-11 6.88556e-11 
133 1.30203e-10 5.58239e-11 2.0331e-10 
137 1.83542e-10 -5.34509e-11 2.26909e-10 
141 9.04624e-11 -8.29732e-11 9.02646e-11 
145 1.02664e-11 3.9539e-11 5.17082e-11 
149 4.31359e-11 3.62906e-11 1.79255e-10 
153 8.32373e-11 -6.24011e-11 2.66188e-10 
157 3.77038e-11 -7.36819e-11 1.04654e-10 
161 -1.05284e-11 4.64969e-11 6.68773e-11 
165 -5.71863e-12 1.1112e-11 8.98581e-11 
169 -2.83154e-11 -1.71866e-11 1.15444e-10 
173 -9.21872e-12 -4.05184e-11 5.84451e-11 
177 -6.09261e-12 2.7034e-12 8.70482e-12 
181 -1.37017e-11 4.07356e-12 2.65789e-11 
185 -2.28143e-12 -3.60755e-13 8.22646e-12 
189 -8.57085e-12 -8.61899e-12 1.17942e-11 
2 1.27595e-10 9.82384e-11 8.02163e-11 
6 2.73902e-10 1.73018e-10 5.13464e-11 
10 1.8273e-10 1.19731e-10 -4.01038e-11 
14 1.3717e-10 7.27393e-11 -7.69419e-11 
18 2.37788e-10 5.53504e-11 1.47537e-10 
22 5.56768e-10 1.14171e-10 1.01241e-10 
26 4.89248e-10 9.07036e-11 -9.52247e-11 
30 2.27051e-10 2.93171e-11 -1.35303e-10 
34 1.9979e-10 -4.9221e-11 1.30332e-10 
38 6.42412e-10 -1.3973e-10 1.62654e-10 
42 4.85911e-10 -9.72589e-11 -1.09169e-10 
46 1.44958e-10 -2.34439e-11 -9.84379e-11 
50 1.14595e-10 -8.64831e-11 9.45571e-11 
54 2.76996e-10 -1.83595e-10 6.33278e-11 
58 2.40913e-10 -1.5776e-10 -6.43454e-11 
62 1.2909e-10 -7.41028e-11 -9.2763e-11 
66 1.181e-10 1.39935e-10 8.4837e-11 
70 1.23556e-10 1.47132e-10 2.37349e-11 
74 9.96802e-11 1.33632e-10 -2.53607e-11 
78 7.98997e-11 1.20066e-10 -6.71429e-11 
82 3.0235e-11 8.29752e-11 5.60237e-11 
86 6.13801e-11 1.75813e-10 3.7707e-11 
90 4.73483e-11 1.69665e-10 -4.82795e-11 
94 1.96446e-11 7.6711e-11 -5.12763e-11 
98 -4.99002e-12 4.6579e-11 2.65904e-11 
102 -1.70445e-11 1.03483e-10 2.13092e-11 
106 -2.05666e-11 1.00908e-10 -2.67098e-11 
110 -5.93489e-12 3.15353e-11 -3.36548e-11 
114 -9.33707e-12 1.19576e-11 1.34128e-11 
118 -1.46489e-11 2.35321e-11 4.61636e-12 
122 -2.01027e-11 2.95696e-11 -1.35181e-11 