ITEM: TIMESTEP
1000
ITEM: NUMBER OF SURFS
192
ITEM: BOX BOUNDS oo rr rr
0 0.0005
0 0.0005
0 0.0005
ITEM: SURFS id f_f_drag_blocks[1] f_f_drag_blocks[2] f_f_drag_blocks[3] 
1 0 0 0 
5 0 0 0 
9 0 0 0 
13 0 0 0 
17 0 0 0 
21 0 0 0 
25 0 0 0 
29 0 0 0 
33 0 0 0 
37 0 0 0 
41 0 0 0 
45 0 0 0 
49 0 0 0 
53 0 0 0 
57 0 0 0 
61 0 0 0 
65 0 0 0 
69 0 0 0 
73 0 0 0 
77 0 0 0 
81 0 0 0 
85 0 0 0 
89 0 0 0 
93 0 0 0 
97 0 0 0 
101 0 0 0 
105 0 0 0 
109 0 0 0 
113 0 0 0 
117 0 0 0 
121 0 0 0 
125 0 0 0 
129 0 0 0 
133 0 0 0 
137 0 0 0 
141 0 0 0 
145 0 0 0 
149 0 0 0 
153 0 0 0 
157 0 0 0 
161 0 0 0 
165 0 0 0 
169 0 0 0 
173 0 0 0 
177 0 0 0 
181 0 0 0 
185 0 0 0 
189 0 0 0 
2 0 0 0 
6 0 0 0 
10 0 0 0 
14 0 0 0 
18 0 0 0 
22 0 0 0 
26 0 0 0 
30 0 0 0 
34 0 0 0 
38 0 0 0 
42 0 0 0 
46 0 0 0 
50 0 0 0 
54 0 0 0 
58 0 0 0 
62 0 0 0 
66 0 0 0 
70 0 0 0 
74 0 0 0 
78 0 0 0 
82 0 0 0 
86 0 0 0 
90 0 0 0 
94 0 0 0 
98 0 0 0 
102 0 0 0 
106 0 0 0 
110 0 0 0 
114 0 0 0 
118 0 0 0 
122 0 0 0 
126 0 0 0 
130 0 0 0 
134 0 0 0 
138 0 0 0 
142 0 0 0 
146 0 0 0 
150 0 0 0 
154 0 0 0 
158 0 0 0 
162 0 0 0 
166 0 0 0 
170 0 0 0 
174 0 0 0 
178 0 0 0 
182 0 0 0 
186 0 0 0 
190 0 0 0 
3 0 0 0 
7 0 0 0 
11 0 0 0 
15 0 0 0 
19 0 0 0 
23 0 0 0 
27 0 0 0 
31 0 0 0 
35 0 0 0 
39 0 0 0 
43 0 0 0 
47 0 0 0 
51 0 0 0 
55 0 0 0 
59 0 0 0 
63 0 0 0 
67 0 0 0 
71 0 0 0 
75 0 0 0 
79 0 0 0 
83 0 0 0 
87 0 0 0 
91 0 0 0 
95 0 0 0 
99 0 0 0 
103 0 0 0 
107 0 0 0 
111 0 0 0 
115 0 0 0 
119 0 0 0 
123 0 0 0 
127 0 0 0 
131 0 0 0 
135 0 0 0 
139 0 0 0 
143 0 0 0 
147 0 0 0 
151 0 0 0 
155 0 0 0 
159 0 0 0 
163 0 0 0 
167 0 0 0 
171 0 0 0 
175 0 0 0 
179 0 0 0 
183 0 0 0 
187 0 0 0 
191 0 0 0 
4 0 0 0 
8 0 0 0 
12 0 0 0 
16 0 0 0 
20 0 0 0 
24 0 0 0 
28 0 0 0 
32 0 0 0 
36 0 0 0 
40 0 0 0 
44 0 0 0 
48 0 0 0 
52 0 0 0 
56 0 0 0 
60 0 0 0 
64 0 0 0 
68 0 0 0 
72 0 0 0 
76 0 0 0 
80 0 0 0 
84 0 0 0 
88 0 0 0 
92 0 0 0 
96 0 0 0 
100 0 0 0 
104 0 0 0 
108 0 0 0 
112 0 0 0 
116 0 0 0 
120 0 0 0 
124 0 0 0 
128 0 0 0 
132 0 0 0 
136 0 0 0 
140 0 0 0 
144 0 0 0 
148 0 0 0 
152 0 0 0 
156 0 0 0 
160 0 0 0 
164 0 0 0 
168 0 0 0 
172 0 0 0 
176 0 0 0 
180 0 0 0 
184 0 0 0 
188 0 0 0 
192 0 0 0 
ITEM: TIMESTEP
2000
ITEM: NUMBER OF SURFS
192
ITEM: BOX BOUNDS oo rr rr
0 0.0005
0 0.0005
0 0.0005
ITEM: SURFS id f_f_drag_blocks[1] f_f_drag_blocks[2] f_f_drag_blocks[3] 
1 1.56865e-10 9.94427e-11 1.08847e-10 
5 2.20424e-10 1.15899e-10 4.76158e-11 
9 2.59979e-10 1.54723e-10 -2.29612e-11 
13 1.17554e-10 1.07368e-10 -9.35927e-11 
17 2.80321e-10 8.65116e-11 1.73007e-10 
21 4.60559e-10 8.13902e-11 1.06569e-10 
25 7.00056e-10 1.42249e-10 -1.73895e-10 
29 2.31536e-10 8.39788e-11 -1.75654e-10 
33 2.05152e-10 -3.02845e-11 1.18888e-10 
37 6.28532e-10 -9.28688e-11 1.21966e-10 
41 6.06477e-10 -1.06998e-10 -1.25896e-10 
45 3.83251e-10 -8.48731e-11 -2.37979e-10 
49 1.29359e-10 -7.85551e-11 5.73329e-11 
53 2.42808e-10 -1.56668e-10 3.26921e-11 
57 1.9895e-10 -1.27318e-10 -2.51898e-11 
61 1.02123e-10 -7.85554e-11 -5.77275e-11 
65 6.17948e-11 8.57261e-11 6.19919e-11 
69 1.17923e-10 1.60167e-10 4.16353e-11 
73 1.05451e-10 1.58712e-10 -3.33531e-11 
77 1.05807e-10 1.07097e-10 -8.66382e-11 
81 3.44028e-11 9.2946e-11 7.28501e-11 
85 5.53714e-11 1.88568e-10 5.54936e-11 
89 6.46004e-11 2.00484e-10 -4.85413e-11 
93 3.13562e-11 9.52271e-11 -5.53067e-11 
97 -1.36322e-12 5.0018e-11 2.64648e-11 
101 -1.84661e-11 1.5639e-10 2.5524e-11 
105 -1.10101e-11 1.07357e-10 -2.26596e-11 
109 -1.62993e-11 7.84633e-11 -4.07185e-11 
113 -3.21273e-12 8.70207e-12 5.90269e-12 
117 -1.09017e-11 2.54879e-11 -4.33907e-12 
121 -1.29875e-11 2.24418e-11 1.79846e-12 
125 -1.78749e-11 1.76515e-11 -1.4617e-11 
129 5.94085e-11 4.90146e-11 7.28728e-11 
133 1.0885e-10 4.01044e-11 1.76714e-10 
137 1.26063e-10 -2.93227e-11 1.52167e-10 
141 6.62078e-11 -6.74194e-11 8.29723e-11 
145 2.802e-11 5.99753e-11 9.54816e-11 
149 4.73564e-11 3.73459e-11 1.85796e-10 
153 6.25368e-11 -4.01036e-11 2.30084e-10 
157 2.61486e-11 -3.12061e-11 6.21909e-11 
161 -9.60714e-12 3.50478e-11 4.32299e-11 
165 -1.89611e-11 3.79124e-11 1.4904e-10 
169 -6.07843e-13 -1.70119e-11 6.93205e-11 
173 -4.01038e-12 -6.58816e-11 1.00289e-10 
177 -4.01215e-12 -3.01884e-12 1.0689e-11 
181 0 0 0 
185 -6.80009e-12 -2.64697e-12 1.66392e-11 
189 -7.32826e-12 -1.08062e-11 1.28081e-11 
2 1.09386e-10 9.45006e-11 6.65872e-11 
6 2.41642e-10 1.58775e-10 6.17691e-11 
10 2.19458e-10 1.28111e-10 -3.68606e-11 
14 9.37882e-11 4.81527e-11 -5.23478e-11 
18 2.85878e-10 6.38907e-11 1.85468e-10 
22 6.01103e-10 8.58696e-11 9.89713e-11 
26 4.99444e-10 1.2375e-10 -9.64627e-11 
30 2.25191e-10 3.2158e-11 -1.28688e-10 
34 2.37695e-10 -3.80745e-11 1.32158e-10 
38 5.26855e-10 -1.18315e-10 1.48625e-10 
42 6.15891e-10 -1.2085e-10 -1.4738e-10 
46 2.65632e-10 -5.12324e-11 -1.96458e-10 
50 1.22749e-10 -8.23327e-11 9.37516e-11 
54 2.40023e-10 -1.5583e-10 4.85857e-11 
58 3.50694e-10 -2.27858e-10 -8.52999e-11 
62 9.72539e-11 -6.67299e-11 -7.62837e-11 
66 7.8003e-11 1.22915e-10 6.69645e-11 
70 8.66823e-11 1.28199e-10 2.91255e-11 
74 9.85117e-11 1.18324e-10 -1.78414e-11 
78 2.43415e-11 5.07189e-11 -2.36564e-11 
82 4.01409e-11 9.38593e-11 4.14956e-11 
86 5.1192e-11 1.67751e-10 3.95067e-11 
90 6.90454e-11 2.10165e-10 -7.49629e-11 
94 2.00487e-11 7.52873e-11 -5.02914e-11 
98 -1.05103e-11 4.1168e-11 2.5416e-11 
102 -1.00136e-11 6.10658e-11 3.27004e-12 
106 -1.61412e-11 1.24518e-10 -2.38113e-11 
110 4.50082e-13 5.87725e-11 -4.71239e-11 
114 1.22439e-12 6.98388e-12 4.47716e-12 
118 -8.35034e-12 2.39873e-11 1.12382e-11 
122 -1.31482e-11 6.33454e-12 -4.34519e-12 
126 -2.4083e-11 6.69614e-11 -4.99405e-11 
130 1.06202e-10 9.33678e-11 1.08782e-10 
134 1.05146e-10 2.84869e-11 1.13066e-10 
138 7.71306e-11 -4.15377e-11 9.90564e-11 
142 3.32631e-11 -3.2084e-11 4.27099e-11 
146 4.83703e-11 9.55189e-11 1.66685e-10 
150 4.79091e-11 2.5032e-11 1.71799e-10 
154 4.42191e-11 -2.67745e-11 1.63538e-10 
158 4.20884e-11 -6.26377e-11 1.04633e-10 
162 -1.7017e-11 8.19854e-11 1.05559e-10 
166 -2.07932e-11 2.8922e-11 1.21928e-10 
170 -1.5872e-11 -2.60008e-11 5.68546e-11 
174 9.04791e-12 -3.30498e-11 3.87603e-11 
178 -6.69305e-12 1.2377e-11 1.98286e-11 
182 -1.78326e-11 8.00669e-12 3.40453e-11 
186 -7.23135e-12 -8.54354e-12 2.21385e-11 
190 -1.60822e-11 -1.57751e-11 2.25197e-11 
3 -2.27569e-12 1.06682e-11 8.01427e-12 
7 -5.23773e-12 3.68051e-12 -4.19404e-13 
11 -2.0153e-11 7.9534e-12 -5.11578e-12 
15 0 0 0 
19 0 0 0 
23 -2.94138e-11 9.97509e-12 7.70914e-12 
27 -3.64693e-12 3.48548e-12 -1.61193e-12 
31 -1.4409e-11 -1.01329e-12 -1.10748e-11 
35 0 0 0 
39 -1.34052e-11 -2.32904e-12 -1.94495e-13 
43 0 0 0 
47 -2.468e-11 -7.47597e-13 -2.16149e-11 
51 -3.93957e-12 -6.34266e-12 4.92476e-12 
55 -2.26114e-11 -7.0282e-12 1.15538e-11 
59 0 0 0 
63 -3.15399e-12 -2.305e-12 -6.59205e-12 
67 6.7723e-11 -8.8178e-11 7.31076e-11 
71 1.38326e-10 -2.19013e-10 8.52678e-11 
75 9.05744e-11 -1.14593e-10 -4.1184e-11 
79 8.25222e-11 -1.00098e-10 -8.33468e-11 
83 3.5511e-11 -9.91388e-11 6.47282e-11 
87 4.76441e-11 -1.39214e-10 3.61057e-11 
91 5.57517e-11 -1.68927e-10 -4.78731e-11 
95 2.44378e-11 -8.1188e-11 -6.44037e-11 
99 -8.72622e-12 -3.21591e-11 2.84499e-11 
103 -1.83632e-11 -1.17659e-10 2.10728e-11 
107 -1.76393e-11 -1.18897e-10 -2.49433e-11 
111 -9.20965e-12 -7.73171e-11 -6.93782e-11 
115 -1.51251e-11 -3.43457e-11 1.98586e-11 
119 -4.54485e-12 -2.09109e-11 -3.61702e-12 
123 -1.70666e-11 -1.5589e-11 -3.10406e-12 
127 -1.86174e-11 -1.00204e-11 -2.42033e-12 
131 9.82886e-11 9.27823e-11 -1.26623e-10 
135 1.25951e-10 5.60415e-11 -1.91277e-10 
139 1.09114e-10 -3.35989e-11 -1.27668e-10 
143 8.08532e-11 -8.83051e-11 -1.08872e-10 
147 2.58014e-11 4.72821e-11 -6.69259e-11 
151 3.57921e-11 4.62875e-11 -1.04779e-10 
155 8.27288e-11 -5.29037e-11 -2.05574e-10 
159 1.89843e-11 -4.36971e-11 -5.88021e-11 
163 -4.67271e-12 5.57824e-11 -6.90537e-11 
167 -2.45033e-12 1.45312e-11 -4.3135e-11 
171 -7.30302e-12 -4.26949e-11 -1.33048e-10 
175 -2.96744e-12 -2.15539e-11 -4.66684e-11 
179 -3.73816e-12 9.41419e-12 -1.02394e-11 
183 -4.13983e-12 1.97567e-12 -7.60377e-12 
187 -2.64694e-11 -3.97058e-12 -6.6148e-11 
191 -2.42994e-12 -1.16579e-11 -1.01623e-11 
4 0 0 0 
8 -2.5892e-11 1.90354e-11 5.63036e-12 
12 -5.90472e-12 2.63824e-12 1.18868e-12 
16 -1.27941e-11 9.90306e-12 -1.16783e-11 
20 -6.96935e-12 -4.89538e-12 4.63966e-12 
24 -1.93885e-11 9.5608e-12 1.32178e-11 
28 0 0 0 
32 -2.03641e-11 2.59188e-12 -4.64055e-12 
36 0 0 0 
40 -2.09218e-11 -3.56609e-13 -1.45008e-12 
44 0 0 0 
48 -1.48291e-11 4.84906e-13 -2.66078e-12 
52 0 0 0 
56 -1.70743e-11 -2.28362e-11 1.74282e-11 
60 -1.43737e-11 -8.38968e-12 -3.2518e-12 
64 -4.48987e-12 -2.48391e-12 -8.1179e-13 
68 1.19331e-10 -1.47271e-10 9.81279e-11 
72 1.2961e-10 -1.5884e-10 4.02659e-11 
76 1.28146e-10 -1.57877e-10 -9.80278e-12 
80 4.62006e-11 -6.51245e-11 -3.8204e-11 
84 4.55988e-11 -1.38587e-10 9.52256e-11 
88 5.12297e-11 -2.15486e-10 4.86667e-11 
92 6.73952e-11 -2.56093e-10 -4.05572e-11 
96 4.68854e-11 -1.2475e-10 -5.42434e-11 
100 -1.89697e-11 -7.59269e-11 6.74446e-11 
104 -6.39359e-12 -8.88141e-11 2.50497e-11 
108 -1.05908e-11 -9.98306e-11 -8.67523e-12 
112 -1.20011e-11 -5.12368e-11 -3.3722e-11 
116 -1.54066e-11 -1.34489e-11 7.02262e-12 
120 -1.8676e-12 -1.44496e-11 1.94812e-12 
124 -2.02262e-11 -5.40968e-11 -1.09474e-11 
128 -1.90814e-11 -2.7071e-11 -1.90831e-11 
132 6.17817e-11 6.0312e-11 -7.12131e-11 
136 1.16934e-10 1.76927e-11 -1.32072e-10 
140 9.64116e-11 -1.40709e-11 -1.37913e-10 
144 9.30163e-11 -7.19968e-11 -1.06565e-10 
148 2.43826e-11 7.07218e-11 -7.26936e-11 
152 8.66923e-11 3.90421e-11 -2.07164e-10 
156 6.54727e-11 -3.29126e-11 -2.26015e-10 
160 5.61472e-12 -5.59967e-11 -9.78612e-11 
164 -1.84446e-11 8.22286e-11 -9.49798e-11 
168 -1.15768e-11 2.19738e-11 -8.72436e-11 
172 -1.28665e-11 -2.9246e-11 -1.62981e-10 
176 5.81922e-12 -5.57718e-11 -6.8698e-11 
180 2.97578e-12 2.40778e-12 -9.3304e-12 
184 -1.07971e-11 1.31158e-11 -4.36196e-11 
188 -3.55964e-11 -1.27967e-11 -4.25569e-11 
192 -8.92415e-12 -6.09741e-12 -1.95001e-11 
