ITEM: TIMESTEP
1000
ITEM: NUMBER OF SURFS
192
ITEM: BOX BOUNDS oo rr rr
0 0.0005
0 0.0005
0 0.0005
ITEM: SURFS id f_f_drag_blocks[1] f_f_drag_blocks[2] f_f_drag_blocks[3] 
1 0 0 0 
5 0 0 0 
9 0 0 0 
13 0 0 0 
17 0 0 0 
21 0 0 0 
25 0 0 0 
29 0 0 0 
33 0 0 0 
37 0 0 0 
41 0 0 0 
45 0 0 0 
49 0 0 0 
53 0 0 0 
57 0 0 0 
61 0 0 0 
65 0 0 0 
69 0 0 0 
73 0 0 0 
77 0 0 0 
81 0 0 0 
85 0 0 0 
89 0 0 0 
93 0 0 0 
97 0 0 0 
101 0 0 0 
105 0 0 0 
109 0 0 0 
113 0 0 0 
117 0 0 0 
121 0 0 0 
125 0 0 0 
129 0 0 0 
133 0 0 0 
137 0 0 0 
141 0 0 0 
145 0 0 0 
149 0 0 0 
153 0 0 0 
157 0 0 0 
161 0 0 0 
165 0 0 0 
169 0 0 0 
173 0 0 0 
177 0 0 0 
181 0 0 0 
185 0 0 0 
189 0 0 0 
2 0 0 0 
6 0 0 0 
10 0 0 0 
14 0 0 0 
18 0 0 0 
22 0 0 0 
26 0 0 0 
30 0 0 0 
34 0 0 0 
38 0 0 0 
42 0 0 0 
46 0 0 0 
50 0 0 0 
54 0 0 0 
58 0 0 0 
62 0 0 0 
66 0 0 0 
70 0 0 0 
74 0 0 0 
78 0 0 0 
82 0 0 0 
86 0 0 0 
90 0 0 0 
94 0 0 0 
98 0 0 0 
102 0 0 0 
106 0 0 0 
110 0 0 0 
114 0 0 0 
118 0 0 0 
122 0 0 0 
126 0 0 0 
130 0 0 0 
134 0 0 0 
138 0 0 0 
142 0 0 0 
146 0 0 0 
150 0 0 0 
154 0 0 0 
158 0 0 0 
162 0 0 0 
166 0 0 0 
170 0 0 0 
174 0 0 0 
178 0 0 0 
182 0 0 0 
186 0 0 0 
190 0 0 0 
3 0 0 0 
7 0 0 0 
11 0 0 0 
15 0 0 0 
19 0 0 0 
23 0 0 0 
27 0 0 0 
31 0 0 0 
35 0 0 0 
39 0 0 0 
43 0 0 0 
47 0 0 0 
51 0 0 0 
55 0 0 0 
59 0 0 0 
63 0 0 0 
67 0 0 0 
71 0 0 0 
75 0 0 0 
79 0 0 0 
83 0 0 0 
87 0 0 0 
91 0 0 0 
95 0 0 0 
99 0 0 0 
103 0 0 0 
107 0 0 0 
111 0 0 0 
115 0 0 0 
119 0 0 0 
123 0 0 0 
127 0 0 0 
131 0 0 0 
135 0 0 0 
139 0 0 0 
143 0 0 0 
147 0 0 0 
151 0 0 0 
155 0 0 0 
159 0 0 0 
163 0 0 0 
167 0 0 0 
171 0 0 0 
175 0 0 0 
179 0 0 0 
183 0 0 0 
187 0 0 0 
191 0 0 0 
4 0 0 0 
8 0 0 0 
12 0 0 0 
16 0 0 0 
20 0 0 0 
24 0 0 0 
28 0 0 0 
32 0 0 0 
36 0 0 0 
40 0 0 0 
44 0 0 0 
48 0 0 0 
52 0 0 0 
56 0 0 0 
60 0 0 0 
64 0 0 0 
68 0 0 0 
72 0 0 0 
76 0 0 0 
80 0 0 0 
84 0 0 0 
88 0 0 0 
92 0 0 0 
96 0 0 0 
100 0 0 0 
104 0 0 0 
108 0 0 0 
112 0 0 0 
116 0 0 0 
120 0 0 0 
124 0 0 0 
128 0 0 0 
132 0 0 0 
136 0 0 0 
140 0 0 0 
144 0 0 0 
148 0 0 0 
152 0 0 0 
156 0 0 0 
160 0 0 0 
164 0 0 0 
168 0 0 0 
172 0 0 0 
176 0 0 0 
180 0 0 0 
184 0 0 0 
188 0 0 0 
192 0 0 0 
ITEM: TIMESTEP
2000
ITEM: NUMBER OF SURFS
192
ITEM: BOX BOUNDS oo rr rr
0 0.0005
0 0.0005
0 0.0005
ITEM: SURFS id f_f_drag_blocks[1] f_f_drag_blocks[2] f_f_drag_blocks[3] 
1 0 0 0 
5 8.16535e-10 5.09342e-10 1.28473e-10 
9 4.31723e-10 3.0958e-10 -1.40026e-10 
13 2.67401e-10 2.30926e-10 -2.34268e-10 
17 3.23996e-10 3.15721e-11 1.11063e-10 
21 0 0 0 
25 5.98512e-10 1.71526e-10 -1.39045e-10 
29 1.51148e-10 2.25833e-11 -7.88431e-11 
33 2.69842e-10 -3.63946e-11 2.02098e-10 
37 1.10932e-10 -3.18598e-11 -1.04457e-11 
41 5.01404e-10 -3.68368e-11 -7.15795e-11 
45 5.94924e-10 -1.58388e-10 -3.94148e-10 
49 4.13062e-10 -1.56387e-10 2.52344e-10 
53 1.53538e-10 -1.33438e-10 1.26532e-10 
57 3.49005e-10 -3.13402e-10 -6.39545e-11 
61 4.01365e-10 -2.43883e-10 -3.02319e-10 
65 1.67256e-10 1.62114e-10 1.06287e-10 
69 5.2124e-11 1.01501e-10 3.48932e-11 
73 1.31769e-10 2.16909e-10 -2.70259e-11 
77 5.66375e-11 1.52539e-10 -5.59654e-11 
81 0 0 0 
85 4.13274e-11 1.05227e-10 1.68763e-11 
89 9.91551e-12 1.20358e-10 -6.9319e-11 
93 7.77798e-11 2.51172e-10 -1.00354e-10 
97 3.83597e-11 6.3643e-11 2.62976e-11 
101 0 0 0 
105 -2.40826e-11 6.61671e-10 -2.38516e-11 
109 -9.37108e-12 5.53088e-11 -4.49487e-11 
113 0 0 0 
117 0 0 0 
121 0 0 0 
125 0 0 0 
129 0 0 0 
133 0 0 0 
137 0 0 0 
141 4.50488e-10 -3.19209e-10 3.24093e-10 
145 7.9446e-11 2.06518e-10 2.05066e-10 
149 7.22869e-11 7.04079e-11 1.97713e-10 
153 1.6588e-10 -1.78281e-10 4.24173e-10 
157 0 0 0 
161 0 0 0 
165 -4.54137e-11 4.26067e-11 1.9938e-10 
169 -8.36742e-11 -3.29409e-11 2.47094e-10 
173 2.88484e-11 -3.41922e-11 8.66217e-11 
177 0 0 0 
181 0 0 0 
185 0 0 0 
189 0 0 0 
2 2.27225e-10 1.4455e-10 1.44456e-10 
6 2.30395e-10 1.97334e-10 2.35876e-11 
10 2.32547e-10 1.17256e-10 -7.60339e-11 
14 1.55147e-10 1.16758e-10 -9.79515e-11 
18 3.24658e-10 5.12554e-11 2.69886e-10 
22 7.42469e-10 1.69283e-10 2.39258e-10 
26 7.54686e-10 1.64695e-10 -1.72498e-10 
30 1.95036e-10 4.03112e-11 -1.03619e-10 
34 1.29073e-10 -3.94608e-11 1.00357e-10 
38 0 0 0 
42 0 0 0 
46 3.53148e-10 -5.19076e-11 -2.68006e-10 
50 7.04007e-11 -8.44077e-11 5.31259e-11 
54 3.7295e-10 -2.36074e-10 9.79692e-11 
58 0 0 0 
62 1.21016e-10 -6.8966e-11 -1.06922e-10 
66 3.52754e-11 4.72771e-11 6.23293e-11 
70 0 0 0 
74 3.3951e-11 1.31945e-10 -3.03238e-12 
78 0 0 0 
82 0 0 0 
86 3.49089e-12 7.83546e-11 -4.07143e-11 
90 0 0 0 
94 1.32671e-11 1.26791e-10 -6.53252e-11 
98 1.87285e-11 5.23566e-11 1.50676e-12 
102 3.08383e-11 9.26126e-11 1.8315e-11 
106 0 0 0 
110 0 0 0 
114 0 0 0 
118 1.04993e-11 9.61854e-11 7.88855e-11 
122 0 0 0 
126 0 0 0 
130 6.06111e-11 7.98001e-11 9.7941e-11 
134 9.52505e-11 5.08563e-11 7.76576e-11 
138 5.66266e-11 -6.77577e-11 6.01262e-11 
142 0 0 0 
146 5.36199e-12 1.15354e-10 1.14312e-10 
150 0 0 0 
154 1.43901e-10 -1.6742e-11 2.41329e-10 
158 5.91569e-11 -1.21858e-10 2.28558e-10 
162 0 0 0 
166 0 0 0 
170 1.18111e-12 1.6542e-11 5.51377e-11 
174 0 0 0 
178 0 0 0 
182 0 0 0 
186 0 0 0 
190 0 0 0 
3 0 0 0 
7 0 0 0 
11 0 0 0 
15 0 0 0 
19 -9.01666e-11 -6.40067e-12 3.53909e-11 
23 0 0 0 
27 0 0 0 
31 0 0 0 
35 0 0 0 
39 0 0 0 
43 0 0 0 
47 0 0 0 
51 -1.8873e-10 -5.66513e-11 6.09603e-11 
55 0 0 0 
59 0 0 0 
63 0 0 0 
67 1.08272e-10 -1.35701e-10 2.86625e-10 
71 1.16983e-10 -1.87014e-10 1.40318e-10 
75 5.58756e-11 -7.72652e-11 -7.23483e-11 
79 0 0 0 
83 8.15905e-11 -2.82341e-11 1.05272e-10 
87 3.12231e-11 -7.62905e-11 1.22006e-11 
91 1.0372e-10 -6.91644e-10 -1.98465e-10 
95 0 0 0 
99 0 0 0 
103 0 0 0 
107 0 0 0 
111 0 0 0 
115 0 0 0 
119 0 0 0 
123 0 0 0 
127 0 0 0 
131 1.01269e-10 1.09674e-10 -2.0471e-10 
135 1.30395e-10 1.23373e-11 -1.34368e-10 
139 6.6226e-11 -4.29467e-11 -1.06955e-10 
143 1.10487e-10 -1.10096e-10 -7.36166e-11 
147 2.11934e-10 3.25118e-10 -3.81074e-10 
151 1.16677e-10 7.77147e-12 -2.08434e-10 
155 1.08035e-10 -1.04631e-10 -4.24331e-10 
159 0 0 0 
163 5.73364e-11 1.45932e-10 -1.09381e-10 
167 0 0 0 
171 9.6841e-12 -1.35337e-10 -3.46979e-10 
175 0 0 0 
179 0 0 0 
183 0 0 0 
187 0 0 0 
191 0 0 0 
4 0 0 0 
8 -7.23158e-11 5.60047e-12 -1.94349e-11 
12 0 0 0 
16 0 0 0 
20 0 0 0 
24 0 0 0 
28 0 0 0 
32 -7.20534e-11 3.57053e-11 -4.3432e-11 
36 -5.12258e-11 -2.71328e-11 7.40069e-11 
40 0 0 0 
44 0 0 0 
48 0 0 0 
52 -1.08699e-10 -1.17527e-10 3.91537e-11 
56 0 0 0 
60 0 0 0 
64 0 0 0 
68 7.10605e-11 -8.91994e-11 3.1057e-11 
72 0 0 0 
76 4.5479e-10 -5.91516e-10 -9.60084e-11 
80 0 0 0 
84 0 0 0 
88 0 0 0 
92 1.80593e-10 -4.04456e-10 -1.79877e-10 
96 0 0 0 
100 0 0 0 
104 -4.92005e-11 -2.9167e-10 1.0487e-10 
108 -1.23936e-10 -4.54397e-10 -8.20036e-11 
112 0 0 0 
116 0 0 0 
120 0 0 0 
124 0 0 0 
128 0 0 0 
132 1.37253e-10 3.47392e-11 -7.57435e-11 
136 2.1419e-10 1.90841e-11 -3.10292e-10 
140 0 0 0 
144 6.36146e-11 -7.41163e-11 -1.5025e-10 
148 0 0 0 
152 -1.47151e-11 5.02503e-11 -1.52444e-10 
156 1.12634e-11 -4.16047e-11 -9.96735e-11 
160 1.50776e-11 -1.43748e-10 -3.22832e-10 
164 -3.35129e-11 5.27986e-12 -1.1702e-11 
168 -9.84984e-11 7.49533e-11 -3.09028e-10 
172 0 0 0 
176 5.36141e-11 -4.21824e-11 -2.97554e-11 
180 0 0 0 
184 0 0 0 
188 0 0 0 
192 0 0 0 
