ITEM: TIMESTEP
25000
ITEM: NUMBER OF SURFS
192
ITEM: BOX BOUNDS oo rr rr
0 0.0005
0 0.0005
0 0.0005
ITEM: SURFS id f_f_drag_cumul[1] f_f_drag_cumul[2] f_f_drag_cumul[3] 
1 0 0 0 
5 0 0 0 
9 0 0 0 
13 0 0 0 
17 0 0 0 
21 0 0 0 
25 0 0 0 
29 0 0 0 
33 0 0 0 
37 0 0 0 
41 0 0 0 
45 0 0 0 
49 0 0 0 
53 0 0 0 
57 0 0 0 
61 0 0 0 
65 0 0 0 
69 0 0 0 
73 0 0 0 
77 0 0 0 
81 0 0 0 
85 0 0 0 
89 0 0 0 
93 0 0 0 
97 0 0 0 
101 0 0 0 
105 0 0 0 
109 0 0 0 
113 0 0 0 
117 0 0 0 
121 0 0 0 
125 0 0 0 
129 0 0 0 
133 0 0 0 
137 0 0 0 
141 0 0 0 
145 0 0 0 
149 0 0 0 
153 0 0 0 
157 0 0 0 
161 0 0 0 
165 0 0 0 
169 0 0 0 
173 0 0 0 
177 0 0 0 
181 0 0 0 
185 0 0 0 
189 0 0 0 
2 0 0 0 
6 0 0 0 
10 0 0 0 
14 0 0 0 
18 0 0 0 
22 0 0 0 
26 0 0 0 
30 0 0 0 
34 0 0 0 
38 0 0 0 
42 0 0 0 
46 0 0 0 
50 0 0 0 
54 0 0 0 
58 0 0 0 
62 0 0 0 
66 0 0 0 
70 0 0 0 
74 0 0 0 
78 0 0 0 
82 0 0 0 
86 0 0 0 
90 0 0 0 
94 0 0 0 
98 0 0 0 
102 0 0 0 
106 0 0 0 
110 0 0 0 
114 0 0 0 
118 0 0 0 
122 0 0 0 
126 0 0 0 
130 0 0 0 
134 0 0 0 
138 0 0 0 
142 0 0 0 
146 0 0 0 
150 0 0 0 
154 0 0 0 
158 0 0 0 
162 0 0 0 
166 0 0 0 
170 0 0 0 
174 0 0 0 
178 0 0 0 
182 0 0 0 
186 0 0 0 
190 0 0 0 
3 0 0 0 
7 0 0 0 
11 0 0 0 
15 0 0 0 
19 0 0 0 
23 0 0 0 
27 0 0 0 
31 0 0 0 
35 0 0 0 
39 0 0 0 
43 0 0 0 
47 0 0 0 
51 0 0 0 
55 0 0 0 
59 0 0 0 
63 0 0 0 
67 0 0 0 
71 0 0 0 
75 0 0 0 
79 0 0 0 
83 0 0 0 
87 0 0 0 
91 0 0 0 
95 0 0 0 
99 0 0 0 
103 0 0 0 
107 0 0 0 
111 0 0 0 
115 0 0 0 
119 0 0 0 
123 0 0 0 
127 0 0 0 
131 0 0 0 
135 0 0 0 
139 0 0 0 
143 0 0 0 
147 0 0 0 
151 0 0 0 
155 0 0 0 
159 0 0 0 
163 0 0 0 
167 0 0 0 
171 0 0 0 
175 0 0 0 
179 0 0 0 
183 0 0 0 
187 0 0 0 
191 0 0 0 
4 0 0 0 
8 0 0 0 
12 0 0 0 
16 0 0 0 
20 0 0 0 
24 0 0 0 
28 0 0 0 
32 0 0 0 
36 0 0 0 
40 0 0 0 
44 0 0 0 
48 0 0 0 
52 0 0 0 
56 0 0 0 
60 0 0 0 
64 0 0 0 
68 0 0 0 
72 0 0 0 
76 0 0 0 
80 0 0 0 
84 0 0 0 
88 0 0 0 
92 0 0 0 
96 0 0 0 
100 0 0 0 
104 0 0 0 
108 0 0 0 
112 0 0 0 
116 0 0 0 
120 0 0 0 
124 0 0 0 
128 0 0 0 
132 0 0 0 
136 0 0 0 
140 0 0 0 
144 0 0 0 
148 0 0 0 
152 0 0 0 
156 0 0 0 
160 0 0 0 
164 0 0 0 
168 0 0 0 
172 0 0 0 
176 0 0 0 
180 0 0 0 
184 0 0 0 
188 0 0 0 
192 0 0 0 
ITEM: TIMESTEP
50000
ITEM: NUMBER OF SURFS
192
ITEM: BOX BOUNDS oo rr rr
0 0.0005
0 0.0005
0 0.0005
ITEM: SURFS id f_f_drag_cumul[1] f_f_drag_cumul[2] f_f_drag_cumul[3] 
1 8.04141e-11 4.49926e-11 5.79961e-11 
5 2.82561e-10 1.79516e-10 7.07605e-11 
9 2.30039e-10 1.54874e-10 -5.23339e-11 
13 1.39575e-10 1.03232e-10 -1.15887e-10 
17 2.08282e-10 2.86437e-11 1.3752e-10 
21 5.31268e-10 1.12112e-10 1.08126e-10 
25 6.23218e-10 1.42257e-10 -1.53764e-10 
29 3.17141e-10 9.88643e-11 -2.17393e-10 
33 1.80995e-10 -3.26883e-11 1.32887e-10 
37 5.69684e-10 -1.16942e-10 1.31395e-10 
41 5.65118e-10 -1.25957e-10 -1.1912e-10 
45 2.83154e-10 -6.99487e-11 -1.77248e-10 
49 1.20014e-10 -7.11243e-11 6.19952e-11 
53 1.93176e-10 -1.13852e-10 4.85932e-11 
57 2.07556e-10 -1.34512e-10 -3.86772e-11 
61 1.4528e-10 -9.19108e-11 -8.80162e-11 
65 6.31216e-11 8.94942e-11 6.22055e-11 
69 1.35338e-10 2.13627e-10 4.49733e-11 
73 1.7295e-10 2.19655e-10 -5.04937e-11 
77 8.55439e-11 8.21703e-11 -6.85437e-11 
81 2.69081e-11 9.68056e-11 7.66864e-11 
85 4.83079e-11 1.49786e-10 3.82652e-11 
89 8.95104e-11 2.6943e-10 -5.78216e-11 
93 4.25472e-11 1.245e-10 -1.05431e-10 
97 -1.02092e-11 4.84155e-11 3.30851e-11 
101 -3.26721e-11 1.34294e-10 1.72001e-11 
105 -9.7629e-12 1.13262e-10 -1.78931e-11 
109 -4.24381e-12 5.27874e-11 -3.62803e-11 
113 -8.36661e-12 1.38226e-11 9.20894e-12 
117 -1.67797e-11 2.10979e-11 5.98345e-12 
121 -1.00998e-11 1.52931e-11 -5.47403e-12 
125 -1.50571e-11 2.41779e-11 -1.20272e-11 
129 7.11949e-11 8.26196e-11 9.5714e-11 
133 1.51195e-10 4.97446e-11 1.93974e-10 
137 1.68721e-10 -6.21451e-11 2.09155e-10 
141 8.56773e-11 -8.88586e-11 9.17931e-11 
145 2.8645e-11 7.20745e-11 9.84167e-11 
149 6.78773e-11 5.02711e-11 2.22926e-10 
153 5.46868e-11 -5.47006e-11 1.88184e-10 
157 3.03424e-11 -5.56666e-11 9.25931e-11 
161 -6.92662e-12 2.435e-11 3.71395e-11 
165 -1.18323e-12 3.10646e-12 6.60597e-11 
169 -1.55323e-11 -3.52729e-11 9.82011e-11 
173 -9.22588e-12 -3.26596e-11 4.42893e-11 
177 -1.35271e-11 6.6551e-12 1.45959e-11 
181 -3.14521e-11 1.10358e-11 5.8442e-11 
185 -1.80299e-11 -1.19398e-11 2.67392e-11 
189 -1.3162e-11 -1.34952e-11 2.1672e-11 
2 1.08298e-10 8.55288e-11 5.94321e-11 
6 2.33157e-10 1.55557e-10 4.44779e-11 
10 3.01658e-10 1.888e-10 -5.57915e-11 
14 1.72138e-10 9.26972e-11 -8.80056e-11 
18 2.1031e-10 6.14814e-11 1.29479e-10 
22 5.1035e-10 9.38439e-11 1.12629e-10 
26 4.83786e-10 1.10264e-10 -9.72699e-11 
30 2.87134e-10 5.92702e-11 -1.75356e-10 
34 2.09759e-10 -4.33265e-11 1.36701e-10 
38 5.68328e-10 -1.47517e-10 1.36707e-10 
42 5.67448e-10 -1.07516e-10 -1.27201e-10 
46 2.49915e-10 -4.94141e-11 -1.56058e-10 
50 1.68094e-10 -1.41605e-10 1.41314e-10 
54 2.18735e-10 -1.59347e-10 6.20227e-11 
58 2.7217e-10 -1.64531e-10 -5.34863e-11 
62 1.60595e-10 -8.34737e-11 -1.06361e-10 
66 8.50143e-11 9.42495e-11 6.19635e-11 
70 1.36821e-10 1.89877e-10 4.74671e-11 
74 1.15452e-10 1.53181e-10 -3.76427e-11 
78 3.73964e-11 7.08352e-11 -3.72878e-11 
82 3.4313e-11 1.17638e-10 7.83763e-11 
86 5.64672e-11 2.2331e-10 5.51769e-11 
90 4.30246e-11 1.83925e-10 -4.50056e-11 
94 1.10519e-11 5.06603e-11 -4.35224e-11 
98 -2.47297e-11 8.4715e-11 6.68396e-11 
102 -1.28846e-11 1.1341e-10 2.72297e-11 
106 -1.82152e-11 9.14834e-11 -2.66442e-11 
110 -2.05415e-12 2.80153e-11 -2.56551e-11 
114 -1.64758e-11 2.63513e-11 1.97328e-11 
118 -2.05221e-11 2.05986e-11 8.97127e-12 
122 -2.06808e-11 2.26318e-11 -3.86181e-12 
126 -7.10472e-12 1.58072e-11 -1.32832e-11 
130 8.32245e-11 7.84549e-11 1.09183e-10 
134 1.44928e-10 4.80023e-11 1.80874e-10 
138 7.93853e-11 -1.8061e-11 1.17498e-10 
142 3.86356e-11 -4.13947e-11 7.97421e-11 
146 6.43318e-11 1.10956e-10 1.59747e-10 
150 5.58915e-11 4.6173e-11 1.61774e-10 
154 5.17258e-11 -6.70434e-11 2.20417e-10 
158 2.65825e-11 -4.65748e-11 7.7265e-11 
162 1.33867e-12 4.24236e-11 4.17242e-11 
166 -2.16229e-11 2.60125e-11 1.08754e-10 
170 -2.01061e-11 -2.18071e-11 1.13492e-10 
174 -2.63091e-12 -3.17926e-11 4.81805e-11 
178 -5.39386e-12 7.09077e-12 7.33996e-12 
182 -1.34478e-11 9.69897e-12 2.63107e-11 
186 -1.2871e-11 -4.9502e-12 2.41589e-11 
190 -1.00483e-11 -1.63596e-11 2.73648e-11 
3 -1.23961e-11 7.80018e-12 7.86801e-12 
7 -1.83881e-11 1.1891e-11 2.63786e-12 
11 -1.68997e-13 1.84022e-12 -8.71027e-13 
15 -9.80207e-12 7.83883e-12 -8.51501e-12 
19 -1.08453e-11 5.18249e-12 9.22434e-12 
23 -8.62352e-12 -8.8081e-13 1.97502e-12 
27 -1.53647e-11 2.16389e-12 -4.64827e-12 
31 -3.1044e-11 1.17872e-11 -2.073e-11 
35 -3.35288e-12 -1.91033e-12 3.9243e-12 
39 -1.67399e-12 7.76198e-13 1.81412e-12 
43 -4.37625e-12 -3.00642e-12 -1.72605e-12 
47 -3.56002e-12 2.30593e-13 -5.32389e-13 
51 -6.21059e-12 -2.06358e-12 1.93463e-12 
55 -1.44149e-11 -1.10071e-11 5.93847e-12 
59 -2.64176e-11 -1.80752e-11 -4.64653e-12 
63 -6.53763e-13 -1.05153e-12 -1.91329e-12 
67 5.8281e-11 -6.63859e-11 4.62373e-11 
71 1.31107e-10 -1.71929e-10 6.24739e-11 
75 1.43365e-10 -1.67314e-10 -4.50717e-11 
79 1.19706e-10 -1.17e-10 -1.04538e-10 
83 2.56147e-11 -9.08251e-11 6.80561e-11 
87 2.98992e-11 -1.54198e-10 4.24985e-11 
91 6.67589e-11 -2.13091e-10 -5.20972e-11 
95 3.11897e-11 -1.23585e-10 -8.53821e-11 
99 -3.49232e-12 -2.6829e-11 1.64214e-11 
103 -1.17903e-11 -8.75022e-11 2.14247e-11 
107 -1.36548e-11 -1.10319e-10 -2.16405e-11 
111 -9.11306e-12 -5.24262e-11 -3.14323e-11 
115 -7.63281e-12 -1.46827e-11 8.61623e-12 
119 -2.05547e-11 -1.79762e-11 -7.81677e-13 
123 -6.69448e-12 -1.30069e-11 -2.14958e-13 
127 -8.28417e-12 -2.32015e-11 -1.28928e-11 
131 5.81592e-11 7.22704e-11 -8.70216e-11 
135 9.05052e-11 2.94899e-11 -1.12478e-10 
139 1.34396e-10 -3.92323e-11 -1.77221e-10 
143 1.03638e-10 -8.4315e-11 -9.9678e-11 
147 4.41071e-11 7.6764e-11 -1.13149e-10 
151 5.5418e-11 4.7491e-11 -2.10035e-10 
155 5.74111e-11 -4.14807e-11 -1.91024e-10 
159 4.1124e-11 -8.17686e-11 -1.15216e-10 
163 -1.17887e-11 4.41826e-11 -6.4157e-11 
167 -1.12241e-11 1.82707e-11 -9.48195e-11 
171 -1.74025e-11 -1.96678e-11 -1.0296e-10 
175 -6.54769e-12 -3.79797e-11 -5.52196e-11 
179 -6.99737e-12 1.12776e-11 -2.65218e-11 
183 -1.08876e-11 4.17361e-12 -1.98643e-11 
187 -1.85621e-11 -7.40417e-12 -2.60862e-11 
191 -8.86243e-12 -7.92293e-12 -1.17816e-11 
4 -6.50635e-12 9.01316e-12 8.20238e-12 
8 -1.11925e-11 8.82975e-12 4.51988e-12 
12 -1.47541e-12 2.69717e-12 -1.15029e-12 
16 -7.01021e-12 1.02992e-11 -5.4033e-12 
20 -2.36768e-11 5.29399e-12 1.62227e-11 
24 -8.22569e-12 5.584e-13 5.39104e-12 
28 -1.34664e-11 3.70291e-12 -5.1382e-12 
32 -4.75734e-12 -9.57324e-13 -2.04551e-12 
36 -9.15452e-12 -1.04588e-12 8.39256e-12 
40 -9.72719e-12 -1.33892e-12 5.33549e-12 
44 -1.0638e-11 -1.87109e-12 -1.76761e-12 
48 0 0 0 
52 -2.07524e-11 -1.8038e-11 1.94014e-11 
56 -1.00249e-11 -8.98834e-12 7.08109e-12 
60 -5.62129e-12 -2.58645e-12 -1.09376e-12 
64 -1.29343e-11 -9.69734e-12 -1.3887e-11 
68 1.04956e-10 -1.10849e-10 8.12605e-11 
72 1.22341e-10 -1.48056e-10 2.69787e-11 
76 1.14879e-10 -1.45831e-10 -3.85342e-11 
80 5.60794e-11 -8.63224e-11 -3.76194e-11 
84 3.05342e-11 -8.00827e-11 5.3033e-11 
88 7.12371e-11 -2.48684e-10 4.53434e-11 
92 6.17098e-11 -2.15882e-10 -5.53544e-11 
96 2.04626e-11 -7.86892e-11 -4.63687e-11 
100 -1.15007e-11 -5.09389e-11 3.89825e-11 
104 -2.06973e-11 -1.0557e-10 2.877e-11 
108 -2.10728e-11 -1.05567e-10 -2.36002e-11 
112 -8.05191e-12 -2.59008e-11 -2.2831e-11 
116 -1.47783e-11 -1.72411e-11 1.7341e-11 
120 -1.46253e-11 -2.07891e-11 -1.77098e-12 
124 -1.59767e-11 -3.75859e-11 -5.00076e-12 
128 -1.0842e-11 -2.50212e-11 -1.99838e-11 
132 1.03892e-10 6.0531e-11 -1.14429e-10 
136 1.13713e-10 2.35268e-11 -1.32958e-10 
140 1.0322e-10 -2.29416e-11 -1.51056e-10 
144 5.34297e-11 -5.43325e-11 -7.3127e-11 
148 3.32856e-11 6.30081e-11 -9.56608e-11 
152 5.43504e-11 4.30874e-11 -2.45741e-10 
156 7.10543e-11 -4.90615e-11 -2.16676e-10 
160 5.69423e-12 -3.87506e-11 -5.45817e-11 
164 -1.75604e-11 4.26632e-11 -5.94883e-11 
168 -1.83736e-11 1.96158e-11 -9.80715e-11 
172 -1.43257e-11 -2.77059e-11 -1.12373e-10 
176 -1.83628e-12 -5.85734e-11 -6.93777e-11 
180 -9.5792e-12 8.64698e-12 -1.19796e-11 
184 -1.38387e-11 5.90118e-12 -2.9382e-11 
188 -1.74433e-11 -1.04985e-11 -3.52088e-11 
192 -1.22014e-11 -1.248e-11 -1.1432e-11 
