ITEM: TIMESTEP
25000
ITEM: NUMBER OF SURFS
192
ITEM: BOX BOUNDS oo rr rr
0 0.0005
0 0.0005
0 0.0005
ITEM: SURFS id f_f_drag_cumul[1] f_f_drag_cumul[2] f_f_drag_cumul[3] 
1 0 0 0 
5 0 0 0 
9 0 0 0 
13 0 0 0 
17 0 0 0 
21 0 0 0 
25 0 0 0 
29 0 0 0 
33 0 0 0 
37 0 0 0 
41 0 0 0 
45 0 0 0 
49 0 0 0 
53 0 0 0 
57 0 0 0 
61 0 0 0 
65 0 0 0 
69 0 0 0 
73 0 0 0 
77 0 0 0 
81 0 0 0 
85 0 0 0 
89 0 0 0 
93 0 0 0 
97 0 0 0 
101 0 0 0 
105 0 0 0 
109 0 0 0 
113 0 0 0 
117 0 0 0 
121 0 0 0 
125 0 0 0 
129 0 0 0 
133 0 0 0 
137 0 0 0 
141 0 0 0 
145 0 0 0 
149 0 0 0 
153 0 0 0 
157 0 0 0 
161 0 0 0 
165 0 0 0 
169 0 0 0 
173 0 0 0 
177 0 0 0 
181 0 0 0 
185 0 0 0 
189 0 0 0 
2 0 0 0 
6 0 0 0 
10 0 0 0 
14 0 0 0 
18 0 0 0 
22 0 0 0 
26 0 0 0 
30 0 0 0 
34 0 0 0 
38 0 0 0 
42 0 0 0 
46 0 0 0 
50 0 0 0 
54 0 0 0 
58 0 0 0 
62 0 0 0 
66 0 0 0 
70 0 0 0 
74 0 0 0 
78 0 0 0 
82 0 0 0 
86 0 0 0 
90 0 0 0 
94 0 0 0 
98 0 0 0 
102 0 0 0 
106 0 0 0 
110 0 0 0 
114 0 0 0 
118 0 0 0 
122 0 0 0 
126 0 0 0 
130 0 0 0 
134 0 0 0 
138 0 0 0 
142 0 0 0 
146 0 0 0 
150 0 0 0 
154 0 0 0 
158 0 0 0 
162 0 0 0 
166 0 0 0 
170 0 0 0 
174 0 0 0 
178 0 0 0 
182 0 0 0 
186 0 0 0 
190 0 0 0 
3 0 0 0 
7 0 0 0 
11 0 0 0 
15 0 0 0 
19 0 0 0 
23 0 0 0 
27 0 0 0 
31 0 0 0 
35 0 0 0 
39 0 0 0 
43 0 0 0 
47 0 0 0 
51 0 0 0 
55 0 0 0 
59 0 0 0 
63 0 0 0 
67 0 0 0 
71 0 0 0 
75 0 0 0 
79 0 0 0 
83 0 0 0 
87 0 0 0 
91 0 0 0 
95 0 0 0 
99 0 0 0 
103 0 0 0 
107 0 0 0 
111 0 0 0 
115 0 0 0 
119 0 0 0 
123 0 0 0 
127 0 0 0 
131 0 0 0 
135 0 0 0 
139 0 0 0 
143 0 0 0 
147 0 0 0 
151 0 0 0 
155 0 0 0 
159 0 0 0 
163 0 0 0 
167 0 0 0 
171 0 0 0 
175 0 0 0 
179 0 0 0 
183 0 0 0 
187 0 0 0 
191 0 0 0 
4 0 0 0 
8 0 0 0 
12 0 0 0 
16 0 0 0 
20 0 0 0 
24 0 0 0 
28 0 0 0 
32 0 0 0 
36 0 0 0 
40 0 0 0 
44 0 0 0 
48 0 0 0 
52 0 0 0 
56 0 0 0 
60 0 0 0 
64 0 0 0 
68 0 0 0 
72 0 0 0 
76 0 0 0 
80 0 0 0 
84 0 0 0 
88 0 0 0 
92 0 0 0 
96 0 0 0 
100 0 0 0 
104 0 0 0 
108 0 0 0 
112 0 0 0 
116 0 0 0 
120 0 0 0 
124 0 0 0 
128 0 0 0 
132 0 0 0 
136 0 0 0 
140 0 0 0 
144 0 0 0 
148 0 0 0 
152 0 0 0 
156 0 0 0 
160 0 0 0 
164 0 0 0 
168 0 0 0 
172 0 0 0 
176 0 0 0 
180 0 0 0 
184 0 0 0 
188 0 0 0 
192 0 0 0 
ITEM: TIMESTEP
50000
ITEM: NUMBER OF SURFS
192
ITEM: BOX BOUNDS oo rr rr
0 0.0005
0 0.0005
0 0.0005
ITEM: SURFS id f_f_drag_cumul[1] f_f_drag_cumul[2] f_f_drag_cumul[3] 
1 1.25872e-10 7.48436e-11 8.83996e-11 
5 2.66426e-10 1.63522e-10 6.36875e-11 
9 2.62639e-10 1.78571e-10 -6.35677e-11 
13 1.50294e-10 1.12198e-10 -1.0941e-10 
17 2.18164e-10 4.29738e-11 1.49367e-10 
21 5.41147e-10 1.12129e-10 1.24704e-10 
25 5.78807e-10 1.31764e-10 -1.31709e-10 
29 2.53298e-10 6.13711e-11 -1.70027e-10 
33 2.02515e-10 -3.67509e-11 1.23158e-10 
37 4.76956e-10 -9.65609e-11 9.48216e-11 
41 5.54969e-10 -1.20867e-10 -1.12428e-10 
45 2.57259e-10 -6.38247e-11 -1.57645e-10 
49 1.23402e-10 -6.83584e-11 6.72235e-11 
53 2.16702e-10 -1.28162e-10 4.28196e-11 
57 2.15964e-10 -1.43679e-10 -4.16902e-11 
61 1.25029e-10 -9.07304e-11 -7.79026e-11 
65 6.29751e-11 8.57812e-11 6.51138e-11 
69 1.30141e-10 1.79136e-10 4.91882e-11 
73 1.49139e-10 1.93323e-10 -5.06649e-11 
77 9.89612e-11 1.0751e-10 -8.96486e-11 
81 2.42819e-11 8.17745e-11 5.82926e-11 
85 5.64463e-11 1.98697e-10 4.65555e-11 
89 6.46061e-11 2.1444e-10 -5.17294e-11 
93 3.82617e-11 1.15289e-10 -8.34824e-11 
97 -5.05601e-12 4.83574e-11 3.04762e-11 
101 -1.18194e-11 9.00851e-11 1.85761e-11 
105 -1.40908e-11 9.83122e-11 -1.91349e-11 
109 -8.53744e-12 5.41262e-11 -3.4131e-11 
113 -8.15911e-12 1.83123e-11 1.08489e-11 
117 -1.17888e-11 2.36071e-11 4.56943e-12 
121 -1.21849e-11 2.08624e-11 -4.81359e-12 
125 -9.79658e-12 1.69166e-11 -1.05626e-11 
129 6.22822e-11 6.26752e-11 8.35521e-11 
133 1.28365e-10 4.43705e-11 1.79412e-10 
137 1.51841e-10 -4.96758e-11 1.8783e-10 
141 9.48122e-11 -8.68861e-11 1.05898e-10 
145 2.57708e-11 6.37023e-11 8.81505e-11 
149 5.5167e-11 4.50313e-11 1.91135e-10 
153 6.70214e-11 -5.21174e-11 2.22113e-10 
157 3.81067e-11 -8.24734e-11 1.15515e-10 
161 -4.52151e-12 3.11845e-11 5.00729e-11 
165 -1.32076e-11 2.12516e-11 9.55264e-11 
169 -1.26394e-11 -1.90403e-11 9.06376e-11 
173 -7.79277e-12 -3.746e-11 5.69112e-11 
177 -7.99991e-12 9.55404e-12 1.66998e-11 
181 -1.03784e-11 3.60214e-12 1.98628e-11 
185 -1.29612e-11 -4.87048e-12 1.9249e-11 
189 -6.42394e-12 -7.67227e-12 1.0984e-11 
2 1.26021e-10 8.98249e-11 7.56516e-11 
6 2.12052e-10 1.44271e-10 4.43631e-11 
10 2.17364e-10 1.29778e-10 -4.07311e-11 
14 1.21971e-10 6.66005e-11 -6.62108e-11 
18 2.6383e-10 6.26515e-11 1.64139e-10 
22 5.30921e-10 1.20081e-10 1.1152e-10 
26 4.74052e-10 9.66977e-11 -9.26245e-11 
30 2.20411e-10 3.83582e-11 -1.33048e-10 
34 2.66405e-10 -6.25618e-11 1.79055e-10 
38 5.73502e-10 -1.27345e-10 1.25993e-10 
42 5.2005e-10 -1.0551e-10 -1.17676e-10 
46 2.25509e-10 -4.17174e-11 -1.50584e-10 
50 1.27547e-10 -9.32157e-11 9.76173e-11 
54 2.64234e-10 -1.76432e-10 6.13343e-11 
58 2.71575e-10 -1.69476e-10 -6.53903e-11 
62 1.28917e-10 -7.75254e-11 -9.19389e-11 
66 8.42523e-11 9.939e-11 6.45842e-11 
70 1.23821e-10 1.57706e-10 3.12817e-11 
74 9.76386e-11 1.37932e-10 -2.58705e-11 
78 5.41832e-11 8.41459e-11 -4.80092e-11 
82 3.75841e-11 1.1356e-10 7.37901e-11 
86 6.41955e-11 2.07898e-10 4.36905e-11 
90 4.79173e-11 1.75426e-10 -3.74445e-11 
94 2.38851e-11 8.97948e-11 -5.62988e-11 
98 -8.58092e-12 5.68757e-11 4.08328e-11 
102 -1.50331e-11 9.79336e-11 2.29653e-11 
106 -1.25273e-11 9.70227e-11 -2.31256e-11 
110 -5.75312e-12 4.85655e-11 -3.54876e-11 
114 -1.06297e-11 1.55247e-11 1.22301e-11 
118 -1.67538e-11 2.77483e-11 7.15557e-12 
122 -1.31115e-11 2.32551e-11 -6.21013e-12 
126 -1.03309e-11 2.10759e-11 -1.64349e-11 
130 8.66634e-11 6.34153e-11 9.95457e-11 
134 1.17941e-10 3.07239e-11 1.46747e-10 
138 9.69994e-11 -2.63876e-11 1.36485e-10 
142 5.07624e-11 -4.52166e-11 7.70479e-11 
146 3.7583e-11 7.21055e-11 1.10536e-10 
150 6.11082e-11 4.2726e-11 2.05932e-10 
154 5.08713e-11 -3.93881e-11 1.84952e-10 
158 2.38092e-11 -5.08697e-11 7.90098e-11 
162 -9.40911e-12 4.4208e-11 6.19493e-11 
166 -1.41449e-11 2.36191e-11 9.68966e-11 
170 -1.42179e-11 -2.50113e-11 1.05261e-10 
174 -5.50846e-12 -3.73065e-11 5.07121e-11 
178 -1.00045e-11 1.2177e-11 1.50918e-11 
182 -1.48567e-11 6.49098e-12 2.62308e-11 
186 -1.45528e-11 -6.97576e-12 2.52743e-11 
190 -7.20562e-12 -1.13422e-11 1.36637e-11 
3 -8.0017e-12 5.89705e-12 7.12937e-12 
7 -8.94615e-12 7.21832e-12 3.45493e-12 
11 -1.10598e-11 9.66552e-12 -3.31382e-12 
15 -6.91209e-12 7.48234e-12 -7.11546e-12 
19 -9.04069e-12 1.88856e-12 7.05431e-12 
23 -1.02524e-11 2.27011e-12 2.78849e-12 
27 -1.25831e-11 4.16036e-12 -3.8353e-12 
31 -8.65581e-12 3.20262e-12 -7.39696e-12 
35 -8.74165e-12 -1.07564e-12 6.21038e-12 
39 -1.02822e-11 -2.15326e-12 2.79052e-12 
43 -1.12014e-11 -2.71768e-12 -2.37287e-12 
47 -9.62558e-12 -2.76883e-12 -7.48066e-12 
51 -4.46192e-12 -2.7675e-12 3.47625e-12 
55 -6.61684e-12 -4.36344e-12 1.71327e-12 
59 -7.11711e-12 -7.0948e-12 -1.5477e-12 
63 -5.88696e-12 -5.53812e-12 -4.90079e-12 
67 6.55345e-11 -9.10864e-11 7.02355e-11 
71 1.2418e-10 -1.74273e-10 4.52406e-11 
75 1.52714e-10 -1.93456e-10 -5.08045e-11 
79 9.75863e-11 -1.06841e-10 -8.96065e-11 
83 2.47611e-11 -8.67904e-11 6.23978e-11 
87 5.27234e-11 -1.96241e-10 4.83091e-11 
91 6.91816e-11 -2.32579e-10 -5.5373e-11 
95 3.7973e-11 -1.10076e-10 -8.25793e-11 
99 -3.0637e-12 -5.46716e-11 3.57312e-11 
103 -1.15368e-11 -8.56004e-11 1.69356e-11 
107 -1.2472e-11 -9.6996e-11 -2.25158e-11 
111 -9.10563e-12 -5.79283e-11 -3.70293e-11 
115 -6.99986e-12 -1.53557e-11 8.69262e-12 
119 -1.19894e-11 -2.49827e-11 5.40961e-12 
123 -1.10497e-11 -1.89364e-11 -3.72401e-12 
127 -8.26738e-12 -1.44192e-11 -9.64359e-12 
131 6.08544e-11 6.52481e-11 -8.17424e-11 
135 1.20731e-10 4.18417e-11 -1.67726e-10 
139 1.53945e-10 -5.03187e-11 -1.93241e-10 
143 9.36862e-11 -8.4666e-11 -1.03232e-10 
147 2.32477e-11 5.92669e-11 -8.30376e-11 
151 5.70809e-11 4.54986e-11 -1.95993e-10 
155 6.61103e-11 -5.30485e-11 -2.13099e-10 
159 3.63726e-11 -7.82863e-11 -1.06878e-10 
163 -5.51664e-12 3.124e-11 -4.76028e-11 
167 -1.08937e-11 1.77161e-11 -8.60127e-11 
171 -1.56249e-11 -2.08203e-11 -9.59775e-11 
175 -8.65656e-12 -3.75294e-11 -5.84238e-11 
179 -8.7159e-12 1.00994e-11 -1.79592e-11 
183 -1.25693e-11 4.48644e-12 -2.3241e-11 
187 -1.16623e-11 -3.4797e-12 -1.7652e-11 
191 -7.94022e-12 -8.28063e-12 -1.32913e-11 
4 -8.23582e-12 6.87838e-12 7.08208e-12 
8 -1.14945e-11 9.01014e-12 3.44247e-12 
12 -7.30579e-12 5.39119e-12 -1.80063e-12 
16 -5.90051e-12 4.17689e-12 -4.82786e-12 
20 -1.07399e-11 3.26585e-12 8.64921e-12 
24 -1.03599e-11 2.51995e-12 3.08947e-12 
28 -9.64836e-12 1.98654e-12 -2.01625e-12 
32 -7.80175e-12 1.584e-12 -6.68372e-12 
36 -1.16328e-11 -4.0116e-12 1.03572e-11 
40 -1.30591e-11 -3.78508e-12 4.74025e-12 
44 -1.02165e-11 -2.99448e-12 -2.77436e-12 
48 -7.43916e-12 -2.13293e-12 -6.28676e-12 
52 -9.75318e-12 -9.81121e-12 9.92716e-12 
56 -1.04311e-11 -9.63521e-12 3.61762e-12 
60 -1.0726e-11 -7.92421e-12 -3.63859e-12 
64 -8.12078e-12 -5.67118e-12 -6.78611e-12 
68 8.65631e-11 -1.02098e-10 6.49532e-11 
72 1.27334e-10 -1.58315e-10 3.38613e-11 
76 1.04229e-10 -1.46852e-10 -2.80258e-11 
80 5.24214e-11 -8.42867e-11 -4.75864e-11 
84 3.46752e-11 -1.05402e-10 6.94378e-11 
88 5.88804e-11 -1.98012e-10 4.3846e-11 
92 5.39476e-11 -1.83398e-10 -3.82331e-11 
96 2.10486e-11 -7.52256e-11 -4.64153e-11 
100 -8.74694e-12 -5.75487e-11 4.05432e-11 
104 -1.46709e-11 -9.79365e-11 2.21027e-11 
108 -1.14708e-11 -9.52069e-11 -2.28847e-11 
112 -6.39338e-12 -4.97492e-11 -3.4349e-11 
116 -9.77858e-12 -1.52156e-11 1.2638e-11 
120 -1.2841e-11 -2.1667e-11 5.41171e-12 
124 -1.44415e-11 -2.6369e-11 -6.06404e-12 
128 -9.4556e-12 -1.72974e-11 -1.36697e-11 
132 8.09807e-11 5.88637e-11 -9.36611e-11 
136 1.21417e-10 3.38435e-11 -1.58095e-10 
140 9.41722e-11 -2.51169e-11 -1.34057e-10 
144 5.46104e-11 -4.95304e-11 -8.54059e-11 
148 3.50844e-11 7.1041e-11 -1.1185e-10 
152 6.0224e-11 4.24267e-11 -1.91072e-10 
156 5.3837e-11 -3.9442e-11 -1.86951e-10 
160 2.43994e-11 -5.42349e-11 -8.63429e-11 
164 -8.07249e-12 4.18061e-11 -5.74443e-11 
168 -1.41604e-11 2.36513e-11 -1.04126e-10 
172 -1.1828e-11 -2.23318e-11 -9.76722e-11 
176 -4.53296e-12 -3.26392e-11 -4.63471e-11 
180 -9.69497e-12 1.33179e-11 -1.56429e-11 
184 -1.47846e-11 6.63611e-12 -2.55009e-11 
188 -1.65215e-11 -8.09468e-12 -3.07413e-11 
192 -9.99153e-12 -1.35804e-11 -1.93086e-11 
