ITEM: TIMESTEP
25000
ITEM: NUMBER OF SURFS
192
ITEM: BOX BOUNDS oo rr rr
0 0.0005
0 0.0005
0 0.0005
ITEM: SURFS id f_f_drag_cumul[1] f_f_drag_cumul[2] f_f_drag_cumul[3] 
1 0 0 0 
5 0 0 0 
9 0 0 0 
13 0 0 0 
17 0 0 0 
21 0 0 0 
25 0 0 0 
29 0 0 0 
33 0 0 0 
37 0 0 0 
41 0 0 0 
45 0 0 0 
49 0 0 0 
53 0 0 0 
57 0 0 0 
61 0 0 0 
65 0 0 0 
69 0 0 0 
73 0 0 0 
77 0 0 0 
81 0 0 0 
85 0 0 0 
89 0 0 0 
93 0 0 0 
97 0 0 0 
101 0 0 0 
105 0 0 0 
109 0 0 0 
113 0 0 0 
117 0 0 0 
121 0 0 0 
125 0 0 0 
129 0 0 0 
133 0 0 0 
137 0 0 0 
141 0 0 0 
145 0 0 0 
149 0 0 0 
153 0 0 0 
157 0 0 0 
161 0 0 0 
165 0 0 0 
169 0 0 0 
173 0 0 0 
177 0 0 0 
181 0 0 0 
185 0 0 0 
189 0 0 0 
2 0 0 0 
6 0 0 0 
10 0 0 0 
14 0 0 0 
18 0 0 0 
22 0 0 0 
26 0 0 0 
30 0 0 0 
34 0 0 0 
38 0 0 0 
42 0 0 0 
46 0 0 0 
50 0 0 0 
54 0 0 0 
58 0 0 0 
62 0 0 0 
66 0 0 0 
70 0 0 0 
74 0 0 0 
78 0 0 0 
82 0 0 0 
86 0 0 0 
90 0 0 0 
94 0 0 0 
98 0 0 0 
102 0 0 0 
106 0 0 0 
110 0 0 0 
114 0 0 0 
118 0 0 0 
122 0 0 0 
126 0 0 0 
130 0 0 0 
134 0 0 0 
138 0 0 0 
142 0 0 0 
146 0 0 0 
150 0 0 0 
154 0 0 0 
158 0 0 0 
162 0 0 0 
166 0 0 0 
170 0 0 0 
174 0 0 0 
178 0 0 0 
182 0 0 0 
186 0 0 0 
190 0 0 0 
3 0 0 0 
7 0 0 0 
11 0 0 0 
15 0 0 0 
19 0 0 0 
23 0 0 0 
27 0 0 0 
31 0 0 0 
35 0 0 0 
39 0 0 0 
43 0 0 0 
47 0 0 0 
51 0 0 0 
55 0 0 0 
59 0 0 0 
63 0 0 0 
67 0 0 0 
71 0 0 0 
75 0 0 0 
79 0 0 0 
83 0 0 0 
87 0 0 0 
91 0 0 0 
95 0 0 0 
99 0 0 0 
103 0 0 0 
107 0 0 0 
111 0 0 0 
115 0 0 0 
119 0 0 0 
123 0 0 0 
127 0 0 0 
131 0 0 0 
135 0 0 0 
139 0 0 0 
143 0 0 0 
147 0 0 0 
151 0 0 0 
155 0 0 0 
159 0 0 0 
163 0 0 0 
167 0 0 0 
171 0 0 0 
175 0 0 0 
179 0 0 0 
183 0 0 0 
187 0 0 0 
191 0 0 0 
4 0 0 0 
8 0 0 0 
12 0 0 0 
16 0 0 0 
20 0 0 0 
24 0 0 0 
28 0 0 0 
32 0 0 0 
36 0 0 0 
40 0 0 0 
44 0 0 0 
48 0 0 0 
52 0 0 0 
56 0 0 0 
60 0 0 0 
64 0 0 0 
68 0 0 0 
72 0 0 0 
76 0 0 0 
80 0 0 0 
84 0 0 0 
88 0 0 0 
92 0 0 0 
96 0 0 0 
100 0 0 0 
104 0 0 0 
108 0 0 0 
112 0 0 0 
116 0 0 0 
120 0 0 0 
124 0 0 0 
128 0 0 0 
132 0 0 0 
136 0 0 0 
140 0 0 0 
144 0 0 0 
148 0 0 0 
152 0 0 0 
156 0 0 0 
160 0 0 0 
164 0 0 0 
168 0 0 0 
172 0 0 0 
176 0 0 0 
180 0 0 0 
184 0 0 0 
188 0 0 0 
192 0 0 0 
ITEM: TIMESTEP
50000
ITEM: NUMBER OF SURFS
192
ITEM: BOX BOUNDS oo rr rr
0 0.0005
0 0.0005
0 0.0005
ITEM: SURFS id f_f_drag_cumul[1] f_f_drag_cumul[2] f_f_drag_cumul[3] 
1 1.24997e-10 7.50178e-11 8.81529e-11 
5 2.71039e-10 1.72078e-10 6.34682e-11 
9 2.60332e-10 1.66749e-10 -5.92193e-11 
13 1.15029e-10 8.95666e-11 -8.75051e-11 
17 2.16031e-10 4.41121e-11 1.50385e-10 
21 5.39532e-10 1.102e-10 1.19607e-10 
25 5.72146e-10 1.26577e-10 -1.28872e-10 
29 2.55373e-10 6.4217e-11 -1.74765e-10 
33 2.29226e-10 -4.41144e-11 1.38635e-10 
37 4.82264e-10 -9.52543e-11 9.64116e-11 
41 5.63806e-10 -1.24094e-10 -1.21428e-10 
45 2.40337e-10 -5.32772e-11 -1.47443e-10 
49 1.37789e-10 -7.53059e-11 7.54557e-11 
53 2.25219e-10 -1.324e-10 4.27531e-11 
57 2.30006e-10 -1.50662e-10 -4.78776e-11 
61 1.24913e-10 -9.12729e-11 -7.47658e-11 
65 5.96651e-11 7.69763e-11 5.91602e-11 
69 1.30053e-10 1.83619e-10 4.72921e-11 
73 1.57007e-10 1.96694e-10 -4.77014e-11 
77 9.07699e-11 1.02735e-10 -8.58577e-11 
81 2.53964e-11 8.40724e-11 6.12045e-11 
85 5.99883e-11 2.16325e-10 5.24215e-11 
89 6.99824e-11 2.21895e-10 -5.10449e-11 
93 4.01214e-11 1.15497e-10 -8.16049e-11 
97 -4.96758e-12 4.82977e-11 3.23684e-11 
101 -8.29216e-12 9.1322e-11 1.90766e-11 
105 -1.30419e-11 8.92293e-11 -1.95033e-11 
109 -8.19332e-12 5.89412e-11 -3.89597e-11 
113 -5.53092e-12 1.31748e-11 8.13241e-12 
117 -1.11837e-11 2.31999e-11 5.61428e-12 
121 -1.33135e-11 2.16201e-11 -5.04136e-12 
125 -6.81655e-12 1.29719e-11 -7.60622e-12 
129 7.21149e-11 7.45987e-11 9.4608e-11 
133 1.25115e-10 4.86163e-11 1.75219e-10 
137 1.40265e-10 -4.37384e-11 1.76819e-10 
141 9.04302e-11 -7.78046e-11 9.81952e-11 
145 2.30561e-11 6.05987e-11 8.26211e-11 
149 5.16538e-11 4.22556e-11 1.78377e-10 
153 6.35884e-11 -5.02729e-11 2.12756e-10 
157 3.64612e-11 -8.15744e-11 1.14634e-10 
161 -4.58495e-12 2.63841e-11 4.41466e-11 
165 -1.03416e-11 1.82432e-11 9.18327e-11 
169 -1.69352e-11 -2.36522e-11 1.04259e-10 
173 -5.82495e-12 -3.79735e-11 5.84694e-11 
177 -7.70248e-12 8.15494e-12 1.55994e-11 
181 -9.93888e-12 4.4902e-12 2.00721e-11 
185 -1.23139e-11 -4.21286e-12 2.2274e-11 
189 -8.64247e-12 -8.93963e-12 1.3544e-11 
2 1.21709e-10 8.93255e-11 7.33865e-11 
6 2.56451e-10 1.73906e-10 4.78882e-11 
10 2.38993e-10 1.50398e-10 -4.54396e-11 
14 1.30372e-10 6.82399e-11 -6.94323e-11 
18 2.78936e-10 6.08255e-11 1.73434e-10 
22 5.57414e-10 1.1831e-10 1.09246e-10 
26 4.88681e-10 9.25757e-11 -9.77743e-11 
30 2.00297e-10 3.85486e-11 -1.2105e-10 
34 2.8829e-10 -6.75276e-11 1.93149e-10 
38 5.9276e-10 -1.32783e-10 1.30905e-10 
42 5.43895e-10 -1.11344e-10 -1.28939e-10 
46 2.09338e-10 -4.13253e-11 -1.44358e-10 
50 1.37647e-10 -1.06758e-10 1.07342e-10 
54 2.59733e-10 -1.7587e-10 6.18795e-11 
58 2.45787e-10 -1.52675e-10 -6.14432e-11 
62 1.2686e-10 -7.34963e-11 -8.93861e-11 
66 8.47496e-11 1.04366e-10 6.64012e-11 
70 1.31254e-10 1.63102e-10 3.05904e-11 
74 9.94892e-11 1.42265e-10 -3.01299e-11 
78 5.21913e-11 7.76206e-11 -4.25421e-11 
82 2.92529e-11 9.30999e-11 5.94113e-11 
86 6.63237e-11 2.13003e-10 4.71042e-11 
90 4.9955e-11 1.75216e-10 -3.49391e-11 
94 2.47789e-11 9.50335e-11 -6.11209e-11 
98 -9.34674e-12 5.63209e-11 3.79875e-11 
102 -1.69506e-11 9.77324e-11 2.53041e-11 
106 -1.25433e-11 9.41762e-11 -2.59038e-11 
110 -7.12545e-12 4.76795e-11 -3.37056e-11 
114 -1.06845e-11 1.5841e-11 1.31433e-11 
118 -1.7462e-11 2.60354e-11 7.36582e-12 
122 -1.49595e-11 2.65506e-11 -5.73631e-12 
126 -8.00108e-12 1.73081e-11 -1.32872e-11 
130 8.9208e-11 6.5216e-11 1.05369e-10 
134 1.20275e-10 2.87181e-11 1.58151e-10 
138 1.15549e-10 -3.34918e-11 1.6335e-10 
142 4.92995e-11 -4.2304e-11 7.6747e-11 
146 3.45789e-11 6.92012e-11 1.07487e-10 
150 6.25799e-11 4.81203e-11 2.08325e-10 
154 5.07087e-11 -3.5247e-11 1.7022e-10 
158 2.52853e-11 -5.87324e-11 8.99259e-11 
162 -8.7887e-12 4.64524e-11 6.26016e-11 
166 -1.58072e-11 2.6463e-11 1.06696e-10 
170 -1.44333e-11 -2.67378e-11 1.08809e-10 
174 -4.85429e-12 -2.96245e-11 4.25748e-11 
178 -9.20303e-12 1.18176e-11 1.49836e-11 
182 -1.43803e-11 8.551e-12 2.57038e-11 
186 -1.12531e-11 -3.99117e-12 2.23763e-11 
190 -1.12747e-11 -1.53178e-11 1.94898e-11 
3 -9.7986e-12 6.56313e-12 8.49598e-12 
7 -1.05865e-11 9.11882e-12 2.7207e-12 
11 -1.14656e-11 9.87324e-12 -4.80228e-12 
15 -8.75327e-12 9.16604e-12 -1.03541e-11 
19 -1.25916e-11 2.84979e-12 9.03568e-12 
23 -9.12442e-12 2.4795e-12 1.9802e-12 
27 -9.48771e-12 2.60396e-12 -2.46475e-12 
31 -7.16687e-12 2.24711e-12 -6.8114e-12 
35 -7.23872e-12 -1.59504e-12 4.31606e-12 
39 -1.30894e-11 -3.46661e-12 3.60124e-12 
43 -1.03881e-11 -3.01594e-12 -3.42649e-12 
47 -1.0708e-11 -3.27008e-12 -6.57253e-12 
51 -7.37577e-12 -3.60979e-12 5.10017e-12 
55 -6.52283e-12 -6.16528e-12 2.56721e-12 
59 -1.12634e-11 -8.10463e-12 -2.94329e-12 
63 -9.38023e-12 -8.3995e-12 -6.99631e-12 
67 6.27125e-11 -8.63317e-11 6.23551e-11 
71 1.32081e-10 -1.83823e-10 4.65135e-11 
75 1.5011e-10 -1.8903e-10 -4.96632e-11 
79 1.00367e-10 -1.09951e-10 -8.77196e-11 
83 2.63775e-11 -9.07162e-11 6.29556e-11 
87 4.74627e-11 -1.86968e-10 4.6751e-11 
91 6.51734e-11 -2.26447e-10 -5.18906e-11 
95 3.95614e-11 -1.18779e-10 -8.5534e-11 
99 -2.72464e-12 -4.65237e-11 2.86651e-11 
103 -1.02037e-11 -8.02115e-11 1.60118e-11 
107 -1.23956e-11 -8.61383e-11 -1.75285e-11 
111 -8.22844e-12 -5.98208e-11 -3.92386e-11 
115 -8.05028e-12 -1.80122e-11 1.14809e-11 
119 -1.24241e-11 -2.60194e-11 5.40343e-12 
123 -9.59513e-12 -1.43163e-11 -4.20154e-12 
127 -8.12896e-12 -1.50315e-11 -9.1953e-12 
131 6.86061e-11 7.33996e-11 -9.48813e-11 
135 1.26368e-10 4.44401e-11 -1.79978e-10 
139 1.509e-10 -4.79948e-11 -1.87861e-10 
143 9.48822e-11 -8.82197e-11 -1.08026e-10 
147 3.10726e-11 7.34797e-11 -1.01741e-10 
151 5.7321e-11 4.70552e-11 -2.01768e-10 
155 6.92652e-11 -5.42834e-11 -2.3105e-10 
159 3.76174e-11 -7.55813e-11 -1.10943e-10 
163 -2.86135e-12 2.87009e-11 -4.17784e-11 
167 -1.17047e-11 1.51378e-11 -8.75298e-11 
171 -1.43333e-11 -2.31738e-11 -9.6943e-11 
175 -7.63478e-12 -3.00805e-11 -5.05164e-11 
179 -4.09424e-12 7.31448e-12 -1.14044e-11 
183 -1.12745e-11 3.57855e-12 -2.02844e-11 
187 -1.42536e-11 -5.84419e-12 -2.18414e-11 
191 -9.72872e-12 -7.98008e-12 -1.26205e-11 
4 -1.04434e-11 8.33768e-12 8.59952e-12 
8 -9.15208e-12 7.3644e-12 2.39215e-12 
12 -6.64828e-12 4.82933e-12 -2.06347e-12 
16 -5.16794e-12 2.97803e-12 -3.12762e-12 
20 -1.09328e-11 3.05848e-12 9.70004e-12 
24 -1.33965e-11 3.47468e-12 2.91995e-12 
28 -8.1004e-12 2.20271e-12 -2.05002e-12 
32 -5.65284e-12 9.11111e-13 -4.96818e-12 
36 -1.03749e-11 -3.76578e-12 1.05225e-11 
40 -7.87509e-12 -1.53581e-12 2.11672e-12 
44 -8.72805e-12 -1.49971e-12 -2.26685e-12 
48 -7.05275e-12 -2.27021e-12 -5.63632e-12 
52 -7.02325e-12 -6.99187e-12 7.92089e-12 
56 -1.38061e-11 -1.21265e-11 3.89025e-12 
60 -1.24827e-11 -9.64287e-12 -3.24477e-12 
64 -7.71993e-12 -4.63785e-12 -7.19598e-12 
68 8.24825e-11 -9.65586e-11 6.07251e-11 
72 1.16074e-10 -1.49352e-10 3.05713e-11 
76 1.10211e-10 -1.53597e-10 -3.38534e-11 
80 5.11364e-11 -8.0195e-11 -4.72341e-11 
84 3.2995e-11 -9.77495e-11 6.33136e-11 
88 6.26194e-11 -2.07384e-10 4.57915e-11 
92 5.64703e-11 -2.07664e-10 -4.06311e-11 
96 3.04892e-11 -9.65051e-11 -6.17765e-11 
100 -7.47443e-12 -5.41894e-11 3.82023e-11 
104 -1.51249e-11 -1.06105e-10 2.65623e-11 
108 -1.33385e-11 -9.83662e-11 -2.2921e-11 
112 -7.60359e-12 -4.81105e-11 -3.37592e-11 
116 -8.45947e-12 -1.66242e-11 1.32695e-11 
120 -1.73265e-11 -2.60283e-11 7.37928e-12 
124 -1.54404e-11 -2.76307e-11 -6.56316e-12 
128 -1.10347e-11 -2.23603e-11 -1.58029e-11 
132 8.94365e-11 6.81119e-11 -1.0546e-10 
136 1.20364e-10 3.41396e-11 -1.55191e-10 
140 1.01193e-10 -2.90364e-11 -1.45981e-10 
144 5.87002e-11 -4.73751e-11 -8.62768e-11 
148 3.69641e-11 7.60674e-11 -1.13273e-10 
152 6.04335e-11 4.06741e-11 -1.93397e-10 
156 5.34902e-11 -4.28939e-11 -1.91863e-10 
160 2.32496e-11 -4.90154e-11 -7.81024e-11 
164 -9.0262e-12 4.33871e-11 -6.02346e-11 
168 -1.35739e-11 2.33087e-11 -1.02836e-10 
172 -1.48827e-11 -2.41953e-11 -9.77579e-11 
176 -3.37775e-12 -3.44423e-11 -4.82001e-11 
180 -1.12056e-11 1.26955e-11 -1.72145e-11 
184 -1.4344e-11 7.00799e-12 -2.50018e-11 
188 -1.52975e-11 -6.68345e-12 -2.79476e-11 
192 -7.63929e-12 -1.14796e-11 -1.53647e-11 
