ITEM: TIMESTEP
25000
ITEM: NUMBER OF SURFS
192
ITEM: BOX BOUNDS oo rr rr
0 0.0005
0 0.0005
0 0.0005
ITEM: SURFS id f_f_drag_blocks[1] f_f_drag_blocks[2] f_f_drag_blocks[3] 
1 0 0 0 
5 0 0 0 
9 0 0 0 
13 0 0 0 
17 0 0 0 
21 0 0 0 
25 0 0 0 
29 0 0 0 
33 0 0 0 
37 0 0 0 
41 0 0 0 
45 0 0 0 
49 0 0 0 
53 0 0 0 
57 0 0 0 
61 0 0 0 
65 0 0 0 
69 0 0 0 
73 0 0 0 
77 0 0 0 
81 0 0 0 
85 0 0 0 
89 0 0 0 
93 0 0 0 
97 0 0 0 
101 0 0 0 
105 0 0 0 
109 0 0 0 
113 0 0 0 
117 0 0 0 
121 0 0 0 
125 0 0 0 
129 0 0 0 
133 0 0 0 
137 0 0 0 
141 0 0 0 
145 0 0 0 
149 0 0 0 
153 0 0 0 
157 0 0 0 
161 0 0 0 
165 0 0 0 
169 0 0 0 
173 0 0 0 
177 0 0 0 
181 0 0 0 
185 0 0 0 
189 0 0 0 
2 0 0 0 
6 0 0 0 
10 0 0 0 
14 0 0 0 
18 0 0 0 
22 0 0 0 
26 0 0 0 
30 0 0 0 
34 0 0 0 
38 0 0 0 
42 0 0 0 
46 0 0 0 
50 0 0 0 
54 0 0 0 
58 0 0 0 
62 0 0 0 
66 0 0 0 
70 0 0 0 
74 0 0 0 
78 0 0 0 
82 0 0 0 
86 0 0 0 
90 0 0 0 
94 0 0 0 
98 0 0 0 
102 0 0 0 
106 0 0 0 
110 0 0 0 
114 0 0 0 
118 0 0 0 
122 0 0 0 
126 0 0 0 
130 0 0 0 
134 0 0 0 
138 0 0 0 
142 0 0 0 
146 0 0 0 
150 0 0 0 
154 0 0 0 
158 0 0 0 
162 0 0 0 
166 0 0 0 
170 0 0 0 
174 0 0 0 
178 0 0 0 
182 0 0 0 
186 0 0 0 
190 0 0 0 
3 0 0 0 
7 0 0 0 
11 0 0 0 
15 0 0 0 
19 0 0 0 
23 0 0 0 
27 0 0 0 
31 0 0 0 
35 0 0 0 
39 0 0 0 
43 0 0 0 
47 0 0 0 
51 0 0 0 
55 0 0 0 
59 0 0 0 
63 0 0 0 
67 0 0 0 
71 0 0 0 
75 0 0 0 
79 0 0 0 
83 0 0 0 
87 0 0 0 
91 0 0 0 
95 0 0 0 
99 0 0 0 
103 0 0 0 
107 0 0 0 
111 0 0 0 
115 0 0 0 
119 0 0 0 
123 0 0 0 
127 0 0 0 
131 0 0 0 
135 0 0 0 
139 0 0 0 
143 0 0 0 
147 0 0 0 
151 0 0 0 
155 0 0 0 
159 0 0 0 
163 0 0 0 
167 0 0 0 
171 0 0 0 
175 0 0 0 
179 0 0 0 
183 0 0 0 
187 0 0 0 
191 0 0 0 
4 0 0 0 
8 0 0 0 
12 0 0 0 
16 0 0 0 
20 0 0 0 
24 0 0 0 
28 0 0 0 
32 0 0 0 
36 0 0 0 
40 0 0 0 
44 0 0 0 
48 0 0 0 
52 0 0 0 
56 0 0 0 
60 0 0 0 
64 0 0 0 
68 0 0 0 
72 0 0 0 
76 0 0 0 
80 0 0 0 
84 0 0 0 
88 0 0 0 
92 0 0 0 
96 0 0 0 
100 0 0 0 
104 0 0 0 
108 0 0 0 
112 0 0 0 
116 0 0 0 
120 0 0 0 
124 0 0 0 
128 0 0 0 
132 0 0 0 
136 0 0 0 
140 0 0 0 
144 0 0 0 
148 0 0 0 
152 0 0 0 
156 0 0 0 
160 0 0 0 
164 0 0 0 
168 0 0 0 
172 0 0 0 
176 0 0 0 
180 0 0 0 
184 0 0 0 
188 0 0 0 
192 0 0 0 
ITEM: TIMESTEP
26000
ITEM: NUMBER OF SURFS
192
ITEM: BOX BOUNDS oo rr rr
0 0.0005
0 0.0005
0 0.0005
ITEM: SURFS id f_f_drag_blocks[1] f_f_drag_blocks[2] f_f_drag_blocks[3] 
1 1.44134e-10 8.66789e-11 1.04495e-10 
5 2.86802e-10 1.80915e-10 7.25406e-11 
9 3.05356e-10 1.96185e-10 -6.80918e-11 
13 1.07879e-10 7.87353e-11 -8.23752e-11 
17 2.50101e-10 4.76248e-11 1.78245e-10 
21 5.16401e-10 1.27923e-10 1.20777e-10 
25 6.16582e-10 1.38547e-10 -1.39667e-10 
29 2.27072e-10 5.09073e-11 -1.50006e-10 
33 1.75533e-10 -3.00806e-11 1.1223e-10 
37 3.81569e-10 -7.2573e-11 9.0241e-11 
41 5.74581e-10 -1.24701e-10 -1.10639e-10 
45 3.15809e-10 -8.79588e-11 -1.96859e-10 
49 1.22728e-10 -6.4597e-11 5.90217e-11 
53 2.88307e-10 -1.70009e-10 5.86566e-11 
57 2.18457e-10 -1.46571e-10 -5.87092e-11 
61 9.47176e-11 -6.8031e-11 -6.08095e-11 
65 5.70135e-11 8.78187e-11 6.18094e-11 
69 1.65177e-10 2.10329e-10 7.20781e-11 
73 1.37685e-10 1.66521e-10 -5.39432e-11 
77 1.22304e-10 1.29201e-10 -1.22095e-10 
81 3.47421e-11 1.07409e-10 6.67616e-11 
85 7.58697e-11 2.30961e-10 5.67284e-11 
89 5.72886e-11 1.86944e-10 -4.35662e-11 
93 3.63594e-11 8.44607e-11 -6.7878e-11 
97 -1.88965e-12 5.36371e-11 3.72051e-11 
101 -1.56678e-11 1.05193e-10 2.10009e-11 
105 -1.09205e-11 9.95093e-11 -2.79428e-11 
109 -4.90713e-12 5.72106e-11 -3.76617e-11 
113 -2.15021e-11 3.72711e-11 2.59696e-11 
117 -1.49697e-11 3.03969e-11 4.44513e-12 
121 -1.4238e-11 1.68207e-11 -8.53387e-12 
125 -2.15166e-11 3.22702e-11 -2.00934e-11 
129 5.0265e-11 5.72285e-11 8.54935e-11 
133 1.30274e-10 3.58365e-11 1.84588e-10 
137 1.84916e-10 -6.1918e-11 2.2439e-10 
141 1.1553e-10 -1.03902e-10 1.15886e-10 
145 2.87007e-11 7.17155e-11 9.87279e-11 
149 5.19278e-11 5.1053e-11 2.06319e-10 
153 7.612e-11 -5.87005e-11 2.39061e-10 
157 4.84392e-11 -1.11225e-10 1.7943e-10 
161 -5.24216e-12 5.00748e-11 7.28743e-11 
165 -1.7959e-11 2.89175e-11 1.12786e-10 
169 -1.48579e-11 -2.25169e-11 7.76857e-11 
173 7.23543e-13 -3.29472e-11 5.25289e-11 
177 -1.11673e-11 1.66238e-11 2.40937e-11 
181 -1.39508e-11 1.15773e-12 2.47311e-11 
185 -7.64905e-12 -6.69126e-12 9.62947e-12 
189 -2.45874e-13 -3.78026e-12 3.20424e-12 
2 1.00109e-10 6.98287e-11 6.23157e-11 
6 2.94195e-10 1.9001e-10 6.92868e-11 
10 2.89237e-10 1.7327e-10 -6.02325e-11 
14 1.07009e-10 5.45602e-11 -5.06758e-11 
18 2.44662e-10 6.07718e-11 1.55235e-10 
22 4.70851e-10 9.51772e-11 1.09619e-10 
26 4.59218e-10 8.85496e-11 -9.79331e-11 
30 1.92929e-10 2.66847e-11 -1.14308e-10 
34 3.52415e-10 -7.87534e-11 2.37981e-10 
38 5.00752e-10 -1.03243e-10 1.14198e-10 
42 4.90013e-10 -1.11399e-10 -1.24281e-10 
46 2.00265e-10 -3.46304e-11 -1.30814e-10 
50 1.56865e-10 -1.19971e-10 1.27849e-10 
54 2.4931e-10 -1.66158e-10 6.41864e-11 
58 3.59123e-10 -2.2294e-10 -9.57906e-11 
62 1.46307e-10 -9.33977e-11 -1.07902e-10 
66 8.67989e-11 9.08169e-11 6.20746e-11 
70 1.22644e-10 1.59522e-10 2.33085e-11 
74 1.40097e-10 2.03227e-10 -3.5585e-11 
78 4.46062e-11 6.57907e-11 -3.40707e-11 
82 4.57552e-11 1.4744e-10 9.0702e-11 
86 7.88727e-11 2.52009e-10 6.45212e-11 
90 4.82051e-11 1.79257e-10 -3.19609e-11 
94 2.70784e-11 9.50846e-11 -5.99215e-11 
98 -1.06881e-11 7.1821e-11 5.40038e-11 
102 -1.10727e-11 9.0024e-11 2.75921e-11 
106 -2.80215e-12 1.01481e-10 -2.9098e-11 
110 -6.01271e-12 3.72834e-11 -3.05341e-11 
114 -4.06446e-12 1.07619e-11 8.41267e-12 
118 -2.20179e-11 3.20169e-11 1.19998e-11 
122 -1.31843e-11 1.91107e-11 -2.71653e-12 
126 -9.75809e-12 2.8426e-11 -2.21478e-11 
130 1.13957e-10 8.92061e-11 1.42305e-10 
134 1.03374e-10 2.69672e-11 1.34654e-10 
138 8.30366e-11 -3.00838e-11 1.27461e-10 
142 5.57823e-11 -5.96942e-11 8.98464e-11 
146 1.82009e-11 5.51111e-11 8.51188e-11 
150 5.94804e-11 2.67418e-11 1.73724e-10 
154 4.579e-11 -5.01512e-11 1.97304e-10 
158 2.90816e-11 -5.37256e-11 9.42476e-11 
162 -1.33101e-11 4.78242e-11 7.1288e-11 
166 -1.53098e-11 1.35198e-11 7.81661e-11 
170 -1.26038e-11 -2.09765e-11 7.96976e-11 
174 -7.26583e-12 -2.02663e-11 4.19768e-11 
178 -1.19172e-11 8.92644e-12 2.2927e-11 
182 -1.26277e-11 6.25667e-12 2.2735e-11 
186 -1.60201e-11 -1.02765e-11 2.36557e-11 
190 -5.0177e-12 -6.80672e-12 1.0923e-11 
3 -2.80022e-12 3.10985e-12 1.31465e-12 
7 -5.27341e-12 6.16595e-12 3.31995e-12 
11 -4.26795e-12 1.77362e-12 -2.11743e-12 
15 -2.01154e-12 9.29561e-12 -7.35183e-12 
19 -2.31896e-12 -7.91995e-13 2.27717e-12 
23 -7.92517e-12 3.45152e-12 1.60831e-12 
27 -7.43507e-12 4.80394e-12 -4.31832e-12 
31 -8.59245e-12 2.38669e-12 -6.19673e-12 
35 -3.90518e-12 -1.55042e-12 2.84336e-12 
39 -2.19194e-11 -2.43276e-12 7.40835e-12 
43 -2.27285e-12 -2.48658e-12 -9.09056e-13 
47 -1.43585e-11 -6.74064e-12 -1.66213e-11 
51 -4.67291e-12 -8.47012e-13 3.99021e-12 
55 -1.01051e-11 -6.28131e-12 3.88259e-12 
59 -4.61788e-12 -3.78992e-12 -3.71801e-12 
63 0 0 0 
67 6.83142e-11 -8.24071e-11 6.62654e-11 
71 1.84347e-10 -2.22422e-10 5.52595e-11 
75 1.65726e-10 -2.04309e-10 -5.63301e-11 
79 1.11708e-10 -1.12324e-10 -8.85998e-11 
83 1.54638e-11 -7.8482e-11 5.57866e-11 
87 4.67214e-11 -1.50229e-10 3.66768e-11 
91 5.68422e-11 -1.83805e-10 -5.09437e-11 
95 3.54025e-11 -1.08755e-10 -7.62563e-11 
99 -4.44605e-13 -3.46691e-11 1.89687e-11 
103 -1.62408e-11 -1.05051e-10 2.446e-11 
107 -1.51861e-11 -1.33705e-10 -2.35004e-11 
111 -1.69245e-11 -5.07532e-11 -3.30626e-11 
115 -3.10964e-12 -1.32258e-11 7.84801e-12 
119 -1.48226e-11 -2.29432e-11 3.7885e-12 
123 -5.79399e-12 -1.18902e-11 -2.08662e-12 
127 -5.31079e-12 -8.36105e-12 -2.35216e-12 
131 6.19724e-11 7.3878e-11 -8.75396e-11 
135 1.49358e-10 4.88561e-11 -1.89358e-10 
139 1.53467e-10 -5.62566e-11 -1.94264e-10 
143 7.87619e-11 -6.89895e-11 -8.50483e-11 
147 3.09788e-11 6.90284e-11 -9.36698e-11 
151 3.7807e-11 2.18993e-11 -1.48317e-10 
155 5.95099e-11 -5.71542e-11 -2.03193e-10 
159 1.49247e-11 -5.75757e-11 -8.08361e-11 
163 6.74008e-13 3.21664e-11 -5.3569e-11 
167 -1.4237e-11 1.47149e-11 -7.0366e-11 
171 -1.4275e-11 -2.16751e-11 -9.96808e-11 
175 7.84777e-13 -3.15994e-11 -5.29223e-11 
179 -2.39812e-12 6.48015e-12 -7.28836e-12 
183 -1.52642e-11 7.06823e-12 -2.15143e-11 
187 -1.09372e-11 -6.45869e-12 -2.16129e-11 
191 -2.36676e-12 -2.97378e-12 -4.8466e-12 
4 -1.08591e-11 1.017e-11 6.39715e-12 
8 -1.21694e-11 1.26557e-11 4.00831e-12 
12 -7.74547e-12 5.02731e-12 -2.74869e-12 
16 -1.18641e-11 9.20826e-12 -5.52254e-12 
20 -2.90844e-11 1.51754e-11 2.20697e-11 
24 -1.29764e-11 2.43695e-12 1.14439e-12 
28 -1.37356e-11 4.58802e-12 -3.59129e-12 
32 -5.08173e-12 4.40275e-12 -5.05711e-12 
36 -1.23871e-11 -1.87834e-12 1.12949e-11 
40 -5.98709e-12 -1.27042e-13 9.48902e-13 
44 -1.7662e-11 -3.78056e-12 -5.48551e-12 
48 -6.50587e-12 -6.41022e-13 -4.58221e-12 
52 -1.14595e-11 -1.27931e-11 9.80045e-12 
56 -1.59892e-11 -1.12226e-11 2.68436e-12 
60 -7.16571e-12 -4.39297e-12 -8.32861e-13 
64 -1.34948e-11 -1.06263e-11 -1.20621e-11 
68 8.01648e-11 -9.91595e-11 6.87136e-11 
72 1.44181e-10 -1.82062e-10 3.07289e-11 
76 5.66222e-11 -8.15591e-11 -2.36598e-11 
80 3.89407e-11 -6.7878e-11 -3.16875e-11 
84 4.47863e-11 -1.09392e-10 7.87267e-11 
88 4.55972e-11 -1.61152e-10 3.92424e-11 
92 7.27406e-11 -2.12842e-10 -5.44667e-11 
96 1.16435e-11 -4.454e-11 -3.54972e-11 
100 -8.6003e-12 -5.20718e-11 3.56535e-11 
104 -2.62842e-11 -9.97616e-11 2.06845e-11 
108 -1.25802e-11 -1.04899e-10 -2.37688e-11 
112 -1.14146e-11 -5.16415e-11 -4.053e-11 
116 -1.21524e-11 -2.45328e-11 1.73469e-11 
120 -1.18972e-11 -2.28466e-11 8.62791e-12 
124 -1.45688e-11 -3.07268e-11 -3.60316e-12 
128 -2.01919e-12 -3.41689e-12 -1.07196e-12 
132 1.15725e-10 8.62906e-11 -1.45393e-10 
136 1.27858e-10 5.18178e-11 -1.69627e-10 
140 5.00205e-11 -1.45634e-11 -7.24365e-11 
144 6.11359e-11 -5.20521e-11 -1.10469e-10 
148 3.02101e-11 6.3608e-11 -1.06696e-10 
152 5.73973e-11 5.40141e-11 -2.19884e-10 
156 8.09716e-11 -4.47688e-11 -2.39584e-10 
160 2.6955e-11 -4.30319e-11 -7.11182e-11 
164 -9.3636e-12 2.98237e-11 -3.94528e-11 
168 -9.59059e-12 2.93501e-11 -1.0888e-10 
172 -1.00869e-11 -2.1491e-11 -9.69681e-11 
176 -7.28063e-12 -4.73677e-11 -7.09964e-11 
180 -8.74059e-12 5.46941e-12 -6.4984e-12 
184 -1.52911e-11 9.54121e-12 -3.14919e-11 
188 -2.25284e-11 -8.93386e-12 -3.63351e-11 
192 -8.18696e-12 -4.4316e-12 -1.02384e-11 
ITEM: TIMESTEP
27000
ITEM: NUMBER OF SURFS
192
ITEM: BOX BOUNDS oo rr rr
0 0.0005
0 0.0005
0 0.0005
ITEM: SURFS id f_f_drag_blocks[1] f_f_drag_blocks[2] f_f_drag_blocks[3] 
1 1.00595e-10 5.50287e-11 5.90816e-11 
5 3.27273e-10 2.07678e-10 7.90054e-11 
9 2.37025e-10 1.74674e-10 -7.46945e-11 
13 1.93176e-10 1.51879e-10 -1.38046e-10 
17 2.31436e-10 4.08832e-11 1.53264e-10 
21 5.6292e-10 1.25e-10 1.34665e-10 
25 5.40486e-10 1.15022e-10 -1.14241e-10 
29 2.53329e-10 5.13786e-11 -1.63983e-10 
33 2.00482e-10 -3.80161e-11 1.15577e-10 
37 4.24595e-10 -7.89171e-11 7.96167e-11 
41 6.13302e-10 -1.47548e-10 -1.13355e-10 
45 3.0135e-10 -6.35724e-11 -1.74174e-10 
49 1.57866e-10 -8.57145e-11 9.11324e-11 
53 2.46004e-10 -1.4386e-10 4.30162e-11 
57 2.18694e-10 -1.29148e-10 -3.03228e-11 
61 1.56261e-10 -1.07552e-10 -9.77822e-11 
65 5.7031e-11 7.61848e-11 5.41825e-11 
69 9.87317e-11 1.27064e-10 4.30338e-11 
73 1.32453e-10 1.86295e-10 -4.13603e-11 
77 9.50909e-11 1.08984e-10 -9.23923e-11 
81 2.93762e-11 6.65067e-11 5.46208e-11 
85 6.8652e-11 2.46791e-10 4.99218e-11 
89 5.55016e-11 2.08148e-10 -5.81125e-11 
93 3.24398e-11 1.16555e-10 -7.51024e-11 
97 -1.05311e-11 7.16139e-11 3.93431e-11 
101 -1.94911e-11 9.51622e-11 2.07821e-11 
105 -1.09958e-11 9.34377e-11 -2.10297e-11 
109 -2.57036e-12 5.47962e-11 -2.98594e-11 
113 -6.09352e-12 1.65824e-11 1.09819e-11 
117 -8.862e-12 1.51396e-11 4.97752e-12 
121 -1.78239e-11 2.02703e-11 -2.43348e-12 
125 -1.37202e-11 1.73653e-11 -1.38952e-11 
129 6.24166e-11 6.94857e-11 8.75817e-11 
133 1.36979e-10 3.54002e-11 1.72317e-10 
137 1.27398e-10 -2.94254e-11 1.41782e-10 
141 1.2286e-10 -1.06141e-10 1.32672e-10 
145 1.7786e-11 5.24894e-11 5.31522e-11 
149 5.04107e-11 4.71331e-11 1.73152e-10 
153 3.70755e-11 -3.50918e-11 1.43075e-10 
157 5.41226e-11 -1.2084e-10 1.58236e-10 
161 -4.99422e-12 4.24851e-11 7.29814e-11 
165 -1.78566e-11 2.42276e-11 8.85392e-11 
169 -9.85587e-12 -2.00172e-11 8.94289e-11 
173 -1.18836e-11 -2.38177e-11 2.97991e-11 
177 -8.0716e-12 9.4023e-12 1.60439e-11 
181 -1.17484e-11 6.3567e-13 2.21051e-11 
185 -1.47021e-11 -1.10318e-11 2.41945e-11 
189 -3.07237e-12 -9.29412e-12 9.67778e-12 
2 1.06952e-10 7.90082e-11 6.39698e-11 
6 1.79196e-10 1.23955e-10 4.84887e-11 
10 1.94742e-10 1.05911e-10 -4.48986e-11 
14 1.16474e-10 6.28407e-11 -5.35238e-11 
18 2.14293e-10 4.86604e-11 1.28891e-10 
22 5.03127e-10 1.28328e-10 8.90902e-11 
26 4.47777e-10 9.96854e-11 -8.74776e-11 
30 1.8803e-10 3.28285e-11 -1.10464e-10 
34 2.40761e-10 -5.92805e-11 1.75075e-10 
38 5.64951e-10 -1.18983e-10 1.30781e-10 
42 5.85454e-10 -1.16086e-10 -1.2118e-10 
46 2.72401e-10 -5.79428e-11 -1.7456e-10 
50 1.03002e-10 -8.07769e-11 7.74666e-11 
54 3.09982e-10 -2.15522e-10 6.42978e-11 
58 3.07651e-10 -1.84888e-10 -6.51887e-11 
62 1.35826e-10 -8.11778e-11 -1.00331e-10 
66 1.03917e-10 1.17323e-10 8.98004e-11 
70 1.34666e-10 1.6968e-10 2.40492e-11 
74 8.00847e-11 9.77437e-11 -1.48912e-11 
78 7.02374e-11 1.0605e-10 -4.83661e-11 
82 3.74165e-11 8.9598e-11 6.5782e-11 
86 7.28086e-11 2.41733e-10 4.32315e-11 
90 5.1593e-11 1.93723e-10 -4.12844e-11 
94 1.96043e-11 1.02278e-10 -5.95962e-11 
98 -6.26866e-12 7.06753e-11 5.65777e-11 
102 -1.35381e-11 6.04432e-11 1.39352e-11 
106 -1.33682e-11 1.09057e-10 -3.05522e-11 
110 -2.07459e-12 4.61751e-11 -4.19345e-11 
114 -1.69069e-11 1.4839e-11 1.68164e-11 
118 -2.71139e-11 5.68854e-11 1.61067e-11 
122 -1.23146e-11 2.12403e-11 -3.04889e-12 
126 -4.78782e-12 1.60153e-11 -7.50672e-12 
130 9.65892e-11 7.17855e-11 1.09609e-10 
134 1.46855e-10 4.37377e-11 1.84056e-10 
138 1.17816e-10 -3.07043e-11 1.64702e-10 
142 8.13847e-11 -7.54529e-11 1.21422e-10 
146 2.60084e-11 5.95706e-11 8.73963e-11 
150 5.24578e-11 1.95898e-11 1.87661e-10 
154 4.20757e-11 -4.69357e-11 1.76011e-10 
158 2.0335e-11 -5.17043e-11 6.94753e-11 
162 -8.47417e-12 3.66099e-11 6.06947e-11 
166 -3.59615e-12 2.76332e-11 1.11483e-10 
170 -2.11851e-11 -4.85367e-11 1.7168e-10 
174 -9.48724e-12 -3.73359e-11 6.32681e-11 
178 -1.23278e-11 1.52869e-11 2.25024e-11 
182 -2.1751e-11 6.53307e-12 3.22595e-11 
186 -1.04918e-11 -5.34623e-12 1.90517e-11 
190 -2.06455e-11 -2.2884e-11 2.25936e-11 
3 -9.10717e-12 4.22887e-12 9.78547e-12 
7 -8.09628e-12 8.43906e-12 5.2538e-12 
11 -4.86678e-12 3.57853e-12 -2.61904e-12 
15 -9.91277e-13 1.61535e-12 6.39929e-14 
19 -9.02076e-12 3.36317e-12 1.13263e-11 
23 -7.4543e-12 1.38244e-12 2.14772e-12 
27 -1.43133e-11 2.42199e-12 -2.36886e-12 
31 -4.95896e-12 3.03251e-12 -2.67341e-12 
35 -1.64383e-12 -2.54651e-12 6.65974e-12 
39 -3.75808e-12 -3.55505e-13 1.28833e-12 
43 -3.8254e-12 2.14367e-13 -1.26757e-13 
47 -1.21958e-11 -2.73156e-12 -9.70401e-12 
51 -1.33584e-12 -2.59604e-12 3.28466e-12 
55 -5.32106e-12 -4.69179e-12 6.52851e-13 
59 -1.10035e-11 -8.56024e-12 -2.2402e-12 
63 -1.87976e-12 -6.21754e-12 -3.49543e-12 
67 7.55524e-11 -1.10048e-10 9.291e-11 
71 1.04418e-10 -1.49744e-10 3.57161e-11 
75 1.48675e-10 -1.68587e-10 -4.5589e-11 
79 9.05557e-11 -1.16905e-10 -8.25033e-11 
83 3.29901e-11 -1.33878e-10 9.55328e-11 
87 4.63409e-11 -1.48912e-10 4.51965e-11 
91 7.16688e-11 -2.65891e-10 -6.97574e-11 
95 2.33932e-11 -9.45778e-11 -8.09376e-11 
99 7.57653e-13 -5.03967e-11 3.84219e-11 
103 -1.10512e-11 -6.32122e-11 1.7334e-11 
107 -1.00481e-11 -9.59974e-11 -2.26453e-11 
111 -1.38627e-11 -8.14616e-11 -4.56254e-11 
115 -7.03961e-12 -1.23412e-11 1.03012e-11 
119 -8.34972e-12 -2.62359e-11 6.75277e-12 
123 -1.9932e-11 -2.31769e-11 -2.81113e-12 
127 -7.98341e-12 -1.27342e-11 -6.41201e-12 
131 6.12227e-11 6.01297e-11 -8.60815e-11 
135 1.27477e-10 4.43396e-11 -1.82321e-10 
139 1.82487e-10 -6.01374e-11 -2.07769e-10 
143 8.04904e-11 -7.07011e-11 -8.2295e-11 
147 1.98115e-11 5.63893e-11 -8.00004e-11 
151 6.02401e-11 5.21729e-11 -2.16594e-10 
155 5.81619e-11 -3.22531e-11 -1.76294e-10 
159 4.5405e-11 -8.55555e-11 -1.25528e-10 
163 -3.20307e-12 4.29402e-11 -6.4996e-11 
167 -1.50801e-11 2.15431e-11 -1.22742e-10 
171 -8.08396e-12 -2.07223e-11 -8.35532e-11 
175 -4.19647e-12 -1.96838e-11 -3.12128e-11 
179 -1.02747e-11 7.92067e-12 -1.99071e-11 
183 -1.89105e-11 4.80166e-12 -2.77996e-11 
187 -1.60435e-11 -5.04261e-12 -2.4242e-11 
191 -2.78141e-12 -4.59371e-12 -6.9164e-12 
4 -2.91993e-12 9.04277e-13 3.1058e-14 
8 -4.66493e-12 4.68032e-12 5.58705e-12 
12 0 0 0 
16 -1.03792e-11 5.12233e-12 -2.9554e-12 
20 -1.16366e-11 2.07524e-12 1.01507e-11 
24 -5.63649e-12 -1.37216e-12 1.1347e-12 
28 -1.77614e-12 4.84501e-13 -8.81172e-13 
32 -3.82934e-12 4.97226e-13 -5.15685e-12 
36 -1.10885e-11 -2.85785e-12 1.23495e-11 
40 -2.90107e-11 -8.08588e-12 6.0433e-12 
44 -1.99826e-11 -5.38604e-12 -4.81027e-12 
48 -1.0384e-11 -3.9976e-12 -7.30807e-12 
52 -8.76307e-12 -9.55411e-12 6.64275e-12 
56 -8.21276e-12 -1.607e-11 3.47842e-12 
60 -1.155e-11 -1.57445e-11 -5.54592e-12 
64 -3.30222e-12 -6.17733e-12 -8.17113e-12 
68 8.9402e-11 -1.00714e-10 6.29754e-11 
72 1.6494e-10 -1.99827e-10 4.10761e-11 
76 1.2534e-10 -1.74074e-10 -3.69003e-11 
80 4.14094e-11 -7.83186e-11 -4.83448e-11 
84 4.06572e-11 -1.22183e-10 8.62108e-11 
88 5.15839e-11 -1.74801e-10 3.80394e-11 
92 8.1057e-11 -2.53353e-10 -5.13989e-11 
96 3.71512e-11 -1.07626e-10 -7.15145e-11 
100 -1.02439e-11 -7.52268e-11 5.33188e-11 
104 -2.27968e-11 -1.29228e-10 2.45527e-11 
108 -8.25216e-12 -1.03589e-10 -2.72384e-11 
112 -5.87805e-12 -5.44684e-11 -4.50716e-11 
116 -1.38292e-11 -1.9361e-11 1.44661e-11 
120 -3.84838e-12 -1.84226e-11 1.9243e-12 
124 -1.29062e-11 -3.57397e-11 -9.62062e-12 
128 -1.65766e-11 -3.06635e-11 -2.28419e-11 
132 7.33347e-11 4.32377e-11 -6.63467e-11 
136 1.09165e-10 2.78157e-11 -1.52306e-10 
140 1.27956e-10 -4.3473e-11 -1.68037e-10 
144 4.38146e-11 -5.08323e-11 -9.12263e-11 
148 4.27422e-11 8.69718e-11 -1.37035e-10 
152 5.18565e-11 2.54047e-11 -1.66737e-10 
156 4.84622e-11 -3.72898e-11 -1.54109e-10 
160 1.64975e-11 -4.17366e-11 -5.57255e-11 
164 -6.23884e-12 6.02124e-11 -7.77067e-11 
168 -1.86099e-11 4.06699e-11 -1.3811e-10 
172 -7.23616e-12 -1.30018e-11 -8.01646e-11 
176 -6.20284e-12 -3.69885e-11 -4.58589e-11 
180 -1.10885e-11 1.85448e-11 -1.60804e-11 
184 -1.66175e-11 7.18465e-12 -2.14684e-11 
188 -1.7616e-11 -4.93219e-14 -3.13719e-11 
192 -9.77536e-12 -2.16302e-11 -2.6101e-11 
ITEM: TIMESTEP
28000
ITEM: NUMBER OF SURFS
192
ITEM: BOX BOUNDS oo rr rr
0 0.0005
0 0.0005
0 0.0005
ITEM: SURFS id f_f_drag_blocks[1] f_f_drag_blocks[2] f_f_drag_blocks[3] 
1 7.48905e-11 4.73577e-11 6.2102e-11 
5 3.04716e-10 2.01367e-10 6.38038e-11 
9 2.90955e-10 2.00734e-10 -7.6965e-11 
13 1.24044e-10 1.01159e-10 -8.53397e-11 
17 2.43039e-10 4.96435e-11 1.73014e-10 
21 5.71684e-10 1.26769e-10 1.16553e-10 
25 6.57757e-10 1.56973e-10 -1.60947e-10 
29 3.01206e-10 7.43093e-11 -2.19501e-10 
33 1.71736e-10 -2.88685e-11 9.85686e-11 
37 3.80499e-10 -7.79842e-11 7.61027e-11 
41 5.72337e-10 -1.30538e-10 -1.24069e-10 
45 2.53983e-10 -7.22195e-11 -1.64225e-10 
49 1.06472e-10 -5.82049e-11 6.42052e-11 
53 1.99706e-10 -1.1061e-10 4.44318e-11 
57 2.26015e-10 -1.49219e-10 -5.52055e-11 
61 9.9566e-11 -7.68842e-11 -5.88697e-11 
65 9.97905e-11 1.32321e-10 1.01411e-10 
69 1.61787e-10 2.0784e-10 6.78368e-11 
73 1.58787e-10 2.00035e-10 -5.76167e-11 
77 1.19048e-10 1.14732e-10 -9.45128e-11 
81 1.87876e-11 9.23387e-11 5.97533e-11 
85 4.33212e-11 1.57019e-10 3.15902e-11 
89 6.40502e-11 2.48422e-10 -6.70974e-11 
93 6.55701e-11 1.7825e-10 -1.21958e-10 
97 -8.56337e-12 3.83521e-11 2.36658e-11 
101 -4.00378e-12 4.57081e-11 6.13414e-12 
105 -1.73897e-11 8.79232e-11 -1.15775e-11 
109 -8.78887e-12 8.91916e-11 -6.04443e-11 
113 -4.39731e-12 9.9371e-12 5.73908e-12 
117 -8.91926e-12 1.43478e-11 5.31283e-12 
121 -2.62703e-11 3.79518e-11 -9.68327e-12 
125 -4.03791e-12 1.67344e-11 -1.70751e-11 
129 4.73208e-11 5.09491e-11 6.49001e-11 
133 1.31879e-10 5.15957e-11 1.79957e-10 
137 1.36778e-10 -4.75193e-11 1.54431e-10 
141 1.21505e-10 -1.25215e-10 1.40056e-10 
145 2.28392e-11 4.44273e-11 6.7012e-11 
149 5.3337e-11 4.66061e-11 1.75221e-10 
153 6.31143e-11 -4.82636e-11 2.42896e-10 
157 4.26373e-11 -8.17234e-11 1.13658e-10 
161 -6.27957e-13 2.81092e-11 3.13477e-11 
165 -1.48598e-11 1.10386e-11 6.51853e-11 
169 -1.72641e-11 -1.84765e-11 9.55404e-11 
173 -9.94577e-13 -3.28346e-11 5.26373e-11 
177 -3.48879e-12 3.45374e-12 7.48641e-12 
181 -1.0236e-11 4.48775e-12 1.17072e-11 
185 -1.07758e-11 -2.21888e-12 1.47444e-11 
189 -1.97801e-12 -1.56485e-12 3.71829e-12 
2 1.41582e-10 9.75787e-11 8.83187e-11 
6 1.69799e-10 1.10475e-10 3.80852e-11 
10 2.52484e-10 1.56282e-10 -4.79086e-11 
14 5.80774e-11 3.31465e-11 -2.94296e-11 
18 2.45433e-10 5.63591e-11 1.45466e-10 
22 5.68018e-10 1.38537e-10 1.28509e-10 
26 4.36623e-10 7.82364e-11 -9.31166e-11 
30 2.24473e-10 3.88775e-11 -1.37093e-10 
34 2.49349e-10 -5.06101e-11 1.65506e-10 
38 5.87255e-10 -1.46042e-10 1.2115e-10 
42 5.04643e-10 -9.7084e-11 -1.10203e-10 
46 2.12678e-10 -3.88896e-11 -1.31523e-10 
50 1.42023e-10 -8.71557e-11 9.62079e-11 
54 2.78806e-10 -1.95377e-10 5.79025e-11 
58 2.33943e-10 -1.5573e-10 -4.98909e-11 
62 9.33247e-11 -7.14026e-11 -7.57834e-11 
66 7.13724e-11 8.50193e-11 4.53933e-11 
70 1.13431e-10 1.47297e-10 2.68199e-11 
74 7.62929e-11 1.03727e-10 -1.57556e-11 
78 6.38044e-11 1.01206e-10 -5.58261e-11 
82 2.17579e-11 1.1912e-10 6.78063e-11 
86 5.19141e-11 1.73371e-10 3.26656e-11 
90 3.92314e-11 1.50204e-10 -2.80096e-11 
94 2.43207e-11 9.53355e-11 -5.58782e-11 
98 -1.08958e-11 7.88907e-11 5.04123e-11 
102 -1.45096e-11 1.19342e-10 2.47099e-11 
106 -1.94238e-11 1.3063e-10 -2.32484e-11 
110 -1.04621e-12 5.22668e-11 -3.83916e-11 
114 -7.96537e-12 1.10385e-11 5.54389e-12 
118 -1.54301e-11 2.08911e-11 6.53188e-12 
122 -1.19601e-11 2.35515e-11 -9.51241e-12 
126 -1.41891e-11 3.78109e-11 -2.667e-11 
130 7.2258e-11 5.39639e-11 8.19585e-11 
134 1.22291e-10 2.40464e-11 1.48387e-10 
138 1.05622e-10 -2.07895e-11 1.37417e-10 
142 4.91299e-11 -4.1228e-11 5.89066e-11 
146 3.5606e-11 6.88824e-11 1.0332e-10 
150 5.95066e-11 5.70438e-11 2.31434e-10 
154 6.63145e-11 -4.39687e-11 2.07058e-10 
158 1.45998e-11 -4.03997e-11 7.70995e-11 
162 -9.3722e-12 6.00719e-11 7.83236e-11 
166 -8.46994e-12 3.83382e-11 1.3389e-10 
170 -1.29141e-11 -2.2118e-11 1.0079e-10 
174 -8.46901e-12 -4.08694e-11 5.24143e-11 
178 -2.60561e-12 4.25291e-12 3.88183e-12 
182 -1.90955e-11 8.57005e-12 4.28129e-11 
186 -1.26176e-11 -6.01264e-12 2.53889e-11 
190 -9.47084e-12 -1.58687e-11 1.67949e-11 
3 -4.35921e-12 4.41876e-12 3.65932e-12 
7 -5.50757e-12 6.47501e-12 1.1845e-12 
11 -1.3369e-11 1.35298e-11 -2.21696e-12 
15 -4.01094e-12 4.26387e-12 -3.09872e-12 
19 -1.58918e-11 4.6481e-12 1.11134e-11 
23 -4.33168e-12 3.70105e-13 6.88001e-12 
27 -1.28849e-11 5.8372e-12 -4.81808e-12 
31 -9.41969e-12 -1.01789e-12 -5.31574e-12 
35 -2.30204e-11 -3.31289e-12 1.49584e-11 
39 -1.15714e-11 -3.92662e-12 6.08959e-12 
43 -1.56065e-11 -6.37663e-12 9.99487e-13 
47 -1.05137e-11 -2.13328e-12 -4.60459e-12 
51 -4.53469e-12 -4.22744e-12 2.25942e-12 
55 -1.33393e-11 -9.28404e-12 7.76261e-12 
59 -1.43942e-12 -3.56069e-12 -1.18146e-12 
63 -9.24171e-12 -7.70685e-12 -8.16132e-12 
67 8.2047e-11 -1.25846e-10 8.56344e-11 
71 1.20782e-10 -1.68003e-10 4.0357e-11 
75 1.27586e-10 -1.57294e-10 -4.11933e-11 
79 1.18313e-10 -1.21868e-10 -1.01741e-10 
83 2.31184e-11 -6.09748e-11 4.54651e-11 
87 4.65075e-11 -1.72933e-10 4.68393e-11 
91 6.64399e-11 -2.57204e-10 -6.59407e-11 
95 4.24447e-11 -1.03814e-10 -7.78396e-11 
99 1.42293e-12 -5.5885e-11 4.60625e-11 
103 -7.66436e-12 -9.39669e-11 1.2473e-11 
107 1.7371e-13 -1.23839e-10 -2.61232e-11 
111 -9.80524e-12 -5.04396e-11 -3.34358e-11 
115 -5.92284e-12 -1.02925e-11 6.6385e-12 
119 -6.51885e-12 -1.61225e-11 -2.02427e-13 
123 -1.61907e-11 -2.70027e-11 -4.83562e-12 
127 -1.57843e-11 -2.94826e-11 -1.89641e-11 
131 7.06088e-11 6.45079e-11 -7.94802e-11 
135 1.1891e-10 3.73809e-11 -1.60739e-10 
139 1.56038e-10 -4.32027e-11 -1.91795e-10 
143 9.6606e-11 -8.81246e-11 -9.84474e-11 
147 3.41666e-11 6.22499e-11 -8.5317e-11 
151 6.20076e-11 5.11592e-11 -2.27744e-10 
155 6.38471e-11 -6.23078e-11 -2.22613e-10 
159 2.33768e-11 -7.24643e-11 -1.06953e-10 
163 -1.58708e-12 2.44253e-11 -3.39181e-11 
167 -1.42231e-11 2.44533e-11 -9.32549e-11 
171 -1.31154e-11 -1.64791e-11 -7.33197e-11 
175 -3.03541e-12 -3.42975e-11 -5.92876e-11 
179 -1.06973e-11 1.3306e-11 -2.81538e-11 
183 -1.85372e-11 1.03868e-12 -4.20877e-11 
187 -6.62246e-12 -3.41099e-12 -6.88913e-12 
191 -1.00681e-11 -1.06802e-11 -1.73964e-11 
4 -6.43018e-12 6.7791e-12 6.0477e-12 
8 -1.81808e-11 1.12563e-11 6.55767e-12 
12 -1.7284e-11 8.56607e-12 -3.74711e-13 
16 5.16907e-13 2.40098e-12 -1.22813e-12 
20 -1.73269e-11 2.03688e-12 1.12655e-11 
24 -7.52662e-12 1.54555e-12 4.67876e-12 
28 -2.26498e-11 6.29259e-12 -7.03647e-12 
32 -1.75174e-11 1.41106e-12 -1.33462e-11 
36 -1.14572e-11 1.90045e-13 1.13007e-11 
40 -1.12032e-11 -3.46397e-12 2.70977e-12 
44 -9.10361e-12 -3.55821e-12 -4.05494e-12 
48 -4.25842e-12 -4.76876e-13 -5.70121e-12 
52 -1.54334e-11 -1.22752e-11 9.01851e-12 
56 -1.60961e-11 -1.97766e-11 4.60253e-12 
60 -1.48515e-11 -7.50048e-12 -7.52438e-12 
64 -1.22157e-11 -7.38681e-12 -9.10293e-12 
68 1.32928e-10 -1.55979e-10 9.1488e-11 
72 1.20867e-10 -1.54277e-10 3.35315e-11 
76 7.56197e-11 -1.07045e-10 -2.04718e-11 
80 3.63054e-11 -5.8322e-11 -3.18287e-11 
84 3.31879e-11 -1.01538e-10 6.0071e-11 
88 5.16669e-11 -2.09244e-10 5.06485e-11 
92 5.70266e-11 -1.84285e-10 -3.50389e-11 
96 2.7454e-11 -7.42546e-11 -4.43671e-11 
100 -1.00707e-11 -5.6685e-11 3.78958e-11 
104 -1.94612e-11 -8.13827e-11 1.54809e-11 
108 -1.36454e-11 -1.02807e-10 -2.26521e-11 
112 -9.69969e-12 -3.617e-11 -2.85972e-11 
116 -1.31321e-11 -1.93062e-11 1.98719e-11 
120 -4.71675e-12 -1.40785e-11 3.52386e-14 
124 -1.72807e-11 -3.2669e-11 -7.89111e-12 
128 -4.3582e-12 -1.98835e-11 -1.29121e-11 
132 7.21926e-11 4.49531e-11 -8.8968e-11 
136 1.08563e-10 2.00477e-11 -1.39714e-10 
140 7.28297e-11 -1.82957e-11 -1.20432e-10 
144 5.10953e-11 -4.97077e-11 -9.30199e-11 
148 3.33435e-11 5.85996e-11 -8.26256e-11 
152 5.60549e-11 2.84155e-11 -1.59364e-10 
156 3.30651e-11 -2.67976e-11 -1.21878e-10 
160 2.27352e-11 -4.91509e-11 -6.5974e-11 
164 -1.27622e-11 4.7778e-11 -6.47172e-11 
168 -1.49576e-11 1.00501e-11 -7.26334e-11 
172 -1.28303e-11 -1.85999e-11 -9.00426e-11 
176 -7.02436e-12 -3.25267e-11 -4.69849e-11 
180 -8.31087e-12 1.89351e-11 -2.30279e-11 
184 -1.35822e-11 5.62819e-12 -1.32518e-11 
188 -1.12245e-11 -6.00944e-12 -2.08401e-11 
192 -3.86028e-12 -5.73255e-12 -8.72203e-12 
ITEM: TIMESTEP
29000
ITEM: NUMBER OF SURFS
192
ITEM: BOX BOUNDS oo rr rr
0 0.0005
0 0.0005
0 0.0005
ITEM: SURFS id f_f_drag_blocks[1] f_f_drag_blocks[2] f_f_drag_blocks[3] 
1 1.04761e-10 7.02611e-11 7.83839e-11 
5 3.0844e-10 1.95461e-10 7.03997e-11 
9 3.26132e-10 2.12991e-10 -7.80862e-11 
13 1.58019e-10 1.25013e-10 -1.16602e-10 
17 2.42526e-10 4.57707e-11 1.61387e-10 
21 4.35241e-10 9.64153e-11 9.00667e-11 
25 5.91338e-10 1.27049e-10 -1.31652e-10 
29 2.76155e-10 6.22833e-11 -1.73828e-10 
33 1.41511e-10 -2.89149e-11 8.88437e-11 
37 4.88383e-10 -1.05164e-10 9.20651e-11 
41 6.7282e-10 -1.52775e-10 -1.53327e-10 
45 2.26376e-10 -6.57361e-11 -1.53639e-10 
49 1.20504e-10 -5.82609e-11 6.68063e-11 
53 1.21856e-10 -7.31473e-11 2.81236e-11 
57 2.07294e-10 -1.31145e-10 -3.9892e-11 
61 9.31255e-11 -6.17379e-11 -5.01541e-11 
65 7.27023e-11 9.40019e-11 7.97281e-11 
69 1.25934e-10 1.73649e-10 5.25417e-11 
73 1.74865e-10 2.08889e-10 -4.54381e-11 
77 8.40248e-11 9.20803e-11 -7.44616e-11 
81 2.67488e-11 6.94728e-11 4.63062e-11 
85 4.50783e-11 1.74725e-10 3.16032e-11 
89 6.47411e-11 2.18785e-10 -5.88147e-11 
93 3.90493e-11 1.15188e-10 -8.25248e-11 
97 -1.35584e-12 4.97466e-11 3.69991e-11 
101 -1.02236e-11 9.29423e-11 1.4646e-11 
105 -7.67923e-12 6.00784e-11 -1.46066e-11 
109 -8.42762e-12 3.70374e-11 -1.75e-11 
113 -1.31949e-11 2.69589e-11 1.76594e-11 
117 -1.32899e-11 2.94955e-11 6.35448e-12 
121 -4.29277e-12 1.01373e-11 -1.02336e-12 
125 -8.07285e-12 1.32095e-11 -8.31663e-12 
129 4.92391e-11 4.11695e-11 6.00792e-11 
133 1.05122e-10 4.30784e-11 1.58649e-10 
137 1.55266e-10 -5.5385e-11 1.99857e-10 
141 8.30444e-11 -7.55647e-11 9.50909e-11 
145 1.61536e-11 3.61849e-11 4.65838e-11 
149 5.38773e-11 2.82239e-11 1.59375e-10 
153 8.00858e-11 -5.69947e-11 2.36957e-10 
157 2.79943e-11 -5.08669e-11 8.63608e-11 
161 8.09381e-13 1.53732e-11 3.03884e-11 
165 -9.38289e-12 1.96129e-11 9.17728e-11 
169 -8.19067e-12 -1.01367e-11 8.94212e-11 
173 -1.14559e-11 -4.80854e-11 6.43039e-11 
177 -4.95516e-12 4.59034e-12 1.47956e-11 
181 -1.07962e-11 7.697e-12 2.98027e-11 
185 -9.88825e-12 -7.06786e-12 2.04626e-11 
189 -5.49733e-12 -5.16054e-12 7.39564e-12 
2 1.21742e-10 8.06299e-11 7.66343e-11 
6 1.77873e-10 1.25993e-10 4.01632e-11 
10 2.10649e-10 1.26093e-10 -3.74607e-11 
14 1.20484e-10 6.93595e-11 -6.45283e-11 
18 2.4062e-10 5.59659e-11 1.53855e-10 
22 5.22799e-10 1.20526e-10 1.32922e-10 
26 3.85954e-10 8.07006e-11 -6.74148e-11 
30 2.66188e-10 3.29725e-11 -1.5707e-10 
34 2.7331e-10 -8.39911e-11 1.80019e-10 
38 5.61748e-10 -1.40898e-10 1.31135e-10 
42 4.39137e-10 -7.20269e-11 -9.80299e-11 
46 2.2466e-10 -4.44125e-11 -1.47204e-10 
50 1.54639e-10 -1.0769e-10 1.18375e-10 
54 1.97599e-10 -1.23599e-10 4.29339e-11 
58 2.73183e-10 -1.7456e-10 -6.8902e-11 
62 1.20863e-10 -6.6765e-11 -7.99001e-11 
66 8.82134e-11 1.20784e-10 7.37008e-11 
70 1.18598e-10 1.46351e-10 2.2134e-11 
74 8.3262e-11 1.13841e-10 -1.68516e-11 
78 5.5113e-11 9.30667e-11 -5.6228e-11 
82 5.44664e-11 1.28315e-10 7.96883e-11 
86 7.66765e-11 2.50154e-10 3.68187e-11 
90 7.10899e-11 2.48614e-10 -5.90948e-11 
94 2.29665e-11 8.59432e-11 -5.2417e-11 
98 -2.94015e-12 4.60859e-11 3.42454e-11 
102 -8.52364e-12 9.28952e-11 2.20629e-11 
106 -1.559e-11 9.86556e-11 -1.99134e-11 
110 -2.39327e-12 3.94364e-11 -2.87462e-11 
114 -1.03407e-11 1.68997e-11 1.07696e-11 
118 -2.09935e-11 4.31412e-11 8.02448e-12 