ITEM: TIMESTEP
25000
ITEM: NUMBER OF SURFS
192
ITEM: BOX BOUNDS oo rr rr
0 0.0005
0 0.0005
0 0.0005
ITEM: SURFS id f_f_drag_blocks[1] f_f_drag_blocks[2] f_f_drag_blocks[3] 
1 0 0 0 
5 0 0 0 
9 0 0 0 
13 0 0 0 
17 0 0 0 
21 0 0 0 
25 0 0 0 
29 0 0 0 
33 0 0 0 
37 0 0 0 
41 0 0 0 
45 0 0 0 
49 0 0 0 
53 0 0 0 
57 0 0 0 
61 0 0 0 
65 0 0 0 
69 0 0 0 
73 0 0 0 
77 0 0 0 
81 0 0 0 
85 0 0 0 
89 0 0 0 
93 0 0 0 
97 0 0 0 
101 0 0 0 
105 0 0 0 
109 0 0 0 
113 0 0 0 
117 0 0 0 
121 0 0 0 
125 0 0 0 
129 0 0 0 
133 0 0 0 
137 0 0 0 
141 0 0 0 
145 0 0 0 
149 0 0 0 
153 0 0 0 
157 0 0 0 
161 0 0 0 
165 0 0 0 
169 0 0 0 
173 0 0 0 
177 0 0 0 
181 0 0 0 
185 0 0 0 
189 0 0 0 
2 0 0 0 
6 0 0 0 
10 0 0 0 
14 0 0 0 
18 0 0 0 
22 0 0 0 
26 0 0 0 
30 0 0 0 
34 0 0 0 
38 0 0 0 
42 0 0 0 
46 0 0 0 
50 0 0 0 
54 0 0 0 
58 0 0 0 
62 0 0 0 
66 0 0 0 
70 0 0 0 
74 0 0 0 
78 0 0 0 
82 0 0 0 
86 0 0 0 
90 0 0 0 
94 0 0 0 
98 0 0 0 
102 0 0 0 
106 0 0 0 
110 0 0 0 
114 0 0 0 
118 0 0 0 
122 0 0 0 
126 0 0 0 
130 0 0 0 
134 0 0 0 
138 0 0 0 
142 0 0 0 
146 0 0 0 
150 0 0 0 
154 0 0 0 
158 0 0 0 
162 0 0 0 
166 0 0 0 
170 0 0 0 
174 0 0 0 
178 0 0 0 
182 0 0 0 
186 0 0 0 
190 0 0 0 
3 0 0 0 
7 0 0 0 
11 0 0 0 
15 0 0 0 
19 0 0 0 
23 0 0 0 
27 0 0 0 
31 0 0 0 
35 0 0 0 
39 0 0 0 
43 0 0 0 
47 0 0 0 
51 0 0 0 
55 0 0 0 
59 0 0 0 
63 0 0 0 
67 0 0 0 
71 0 0 0 
75 0 0 0 
79 0 0 0 
83 0 0 0 
87 0 0 0 
91 0 0 0 
95 0 0 0 
99 0 0 0 
103 0 0 0 
107 0 0 0 
111 0 0 0 
115 0 0 0 
119 0 0 0 
123 0 0 0 
127 0 0 0 
131 0 0 0 
135 0 0 0 
139 0 0 0 
143 0 0 0 
147 0 0 0 
151 0 0 0 
155 0 0 0 
159 0 0 0 
163 0 0 0 
167 0 0 0 
171 0 0 0 
175 0 0 0 
179 0 0 0 
183 0 0 0 
187 0 0 0 
191 0 0 0 
4 0 0 0 
8 0 0 0 
12 0 0 0 
16 0 0 0 
20 0 0 0 
24 0 0 0 
28 0 0 0 
32 0 0 0 
36 0 0 0 
40 0 0 0 
44 0 0 0 
48 0 0 0 
52 0 0 0 
56 0 0 0 
60 0 0 0 
64 0 0 0 
68 0 0 0 
72 0 0 0 
76 0 0 0 
80 0 0 0 
84 0 0 0 
88 0 0 0 
92 0 0 0 
96 0 0 0 
100 0 0 0 
104 0 0 0 
108 0 0 0 
112 0 0 0 
116 0 0 0 
120 0 0 0 
124 0 0 0 
128 0 0 0 
132 0 0 0 
136 0 0 0 
140 0 0 0 
144 0 0 0 
148 0 0 0 
152 0 0 0 
156 0 0 0 
160 0 0 0 
164 0 0 0 
168 0 0 0 
172 0 0 0 
176 0 0 0 
180 0 0 0 
184 0 0 0 
188 0 0 0 
192 0 0 0 
ITEM: TIMESTEP
26000
ITEM: NUMBER OF SURFS
192
ITEM: BOX BOUNDS oo rr rr
0 0.0005
0 0.0005
0 0.0005
ITEM: SURFS id f_f_drag_blocks[1] f_f_drag_blocks[2] f_f_drag_blocks[3] 
1 8.35691e-11 3.39396e-11 4.71886e-11 
5 2.54361e-10 1.96817e-10 6.83716e-11 
9 2.71635e-10 1.62376e-10 -6.40434e-11 
13 9.95158e-11 6.93488e-11 -6.6619e-11 
17 1.21393e-10 2.77761e-11 9.23308e-11 
21 5.20911e-10 1.02153e-10 1.02857e-10 
25 6.96201e-10 1.41169e-10 -1.37554e-10 
29 3.22725e-10 5.78901e-11 -2.16668e-10 
33 2.65456e-10 -5.30227e-11 1.81248e-10 
37 4.74523e-10 -1.11881e-10 8.75652e-11 
41 5.93824e-10 -1.43796e-10 -1.30983e-10 
45 1.23352e-10 -2.80216e-11 -6.32079e-11 
49 1.28894e-10 -4.41293e-11 5.79882e-11 
53 2.55789e-10 -1.52387e-10 3.01402e-11 
57 3.77245e-10 -2.55234e-10 -8.15446e-11 
61 7.72064e-11 -4.96263e-11 -4.34121e-11 
65 6.83776e-11 6.83497e-11 6.315e-11 
69 6.21104e-11 1.02417e-10 2.24984e-11 
73 1.8795e-10 2.06162e-10 -4.74206e-11 
77 1.14972e-10 1.22861e-10 -1.18405e-10 
81 1.54113e-11 5.01339e-11 3.27797e-11 
85 8.42009e-11 2.36922e-10 4.22202e-11 
89 5.12159e-11 2.47497e-10 -4.98916e-11 
93 3.61993e-11 1.30035e-10 -7.22098e-11 
97 2.88167e-12 4.08466e-11 2.23323e-11 
101 -6.87317e-12 1.24733e-10 3.87653e-11 
105 -1.31229e-11 1.31255e-10 -2.03663e-11 
109 -1.38813e-11 9.27075e-11 -6.66106e-11 
113 -6.27251e-12 1.26415e-11 7.02924e-12 
117 -3.98644e-12 1.01243e-11 4.01326e-12 
121 -2.6986e-11 4.67423e-11 -1.30636e-11 
125 0 0 0 
129 7.43343e-11 1.06998e-10 1.32953e-10 
133 9.99756e-11 4.78979e-11 1.39637e-10 
137 1.87592e-10 -5.7271e-11 2.20774e-10 
141 1.73009e-10 -1.59439e-10 1.93178e-10 
145 2.33276e-11 5.64165e-11 8.22644e-11 
149 5.04481e-11 1.28412e-11 1.30603e-10 
153 5.61141e-11 -3.20115e-11 1.57237e-10 
157 2.76219e-11 -6.51889e-11 7.85517e-11 
161 3.56514e-12 1.04319e-11 1.42529e-11 
165 -7.59217e-12 1.38228e-11 5.12832e-11 
169 -8.49617e-12 -2.08892e-11 9.33439e-11 
173 -5.54222e-12 -5.09281e-11 7.6979e-11 
177 0 0 0 
181 -1.23689e-11 -5.49266e-13 1.99054e-11 
185 -1.72565e-11 -4.36042e-12 3.11649e-11 
189 0 0 0 
2 7.88888e-11 6.04287e-11 4.31217e-11 
6 1.76978e-10 1.33609e-10 1.25872e-11 
10 2.65807e-10 1.6472e-10 -7.2837e-11 
14 1.04774e-10 3.80413e-11 -4.59031e-11 
18 1.96536e-10 4.658e-11 1.07532e-10 
22 3.84454e-10 1.1501e-10 8.37291e-11 
26 5.8256e-10 9.68442e-11 -1.03417e-10 
30 1.861e-10 4.86957e-11 -1.13745e-10 
34 2.75128e-10 -8.12244e-11 1.80573e-10 
38 6.35768e-10 -1.62347e-10 1.36194e-10 
42 7.52399e-10 -1.90712e-10 -2.05579e-10 
46 2.24509e-10 -4.50313e-11 -1.61771e-10 
50 1.29172e-10 -8.64419e-11 9.92117e-11 
54 1.22951e-10 -7.17853e-11 3.5406e-11 
58 2.21156e-10 -1.16132e-10 -6.03934e-11 
62 1.49312e-10 -7.88363e-11 -1.06656e-10 
66 7.17417e-11 9.9357e-11 4.89277e-11 
70 1.22039e-10 1.48099e-10 9.70565e-12 
74 1.0256e-10 1.36084e-10 -2.16096e-11 
78 2.00143e-11 3.28706e-11 -2.61914e-11 
82 4.35903e-11 1.56116e-10 9.24895e-11 
86 8.70237e-11 2.42777e-10 5.46467e-11 
90 8.29377e-11 1.93873e-10 -4.82521e-11 
94 2.78883e-11 1.18539e-10 -6.23053e-11 
98 -1.32223e-11 7.167e-11 4.16388e-11 
102 -1.8256e-11 1.14888e-10 2.29263e-11 
106 -1.3599e-11 8.81347e-11 -1.92794e-11 
110 -5.44166e-12 6.23772e-11 -3.99513e-11 
114 -4.2453e-12 1.43542e-11 8.67371e-12 
118 -4.03775e-11 4.89043e-11 1.44138e-11 
122 -2.74448e-11 3.27863e-11 -1.40856e-11 
126 -1.01881e-11 2.23784e-11 -1.54802e-11 
130 1.00819e-10 6.42208e-11 1.11903e-10 
134 1.51829e-10 3.06387e-11 2.13366e-10 
138 1.00315e-10 -2.19197e-11 1.43201e-10 
142 4.8442e-11 -5.25084e-11 8.94297e-11 
146 1.92682e-11 3.92644e-11 6.16916e-11 
150 5.80687e-11 4.06824e-11 2.24568e-10 
154 5.2534e-11 -4.5918e-11 1.80762e-10 
158 1.45287e-11 -6.34407e-11 8.99375e-11 
162 -2.13104e-11 6.20408e-11 8.79661e-11 
166 -2.83071e-11 2.35131e-11 7.97577e-11 
170 -2.2818e-11 -3.29318e-11 1.14279e-10 
174 5.012e-12 -1.13564e-11 1.96025e-11 
178 -3.90517e-12 1.05859e-11 1.05526e-11 
182 -5.14746e-12 2.68772e-12 1.73814e-11 
186 -2.86462e-11 -2.04915e-11 5.72973e-11 
190 -1.49964e-11 -1.47039e-11 2.51907e-11 
3 -3.89279e-11 2.35855e-11 1.59705e-11 
7 0 0 0 
11 -2.6266e-11 1.74295e-11 -1.3938e-11 
15 0 0 0 
19 -1.90851e-11 2.58662e-12 1.11398e-11 
23 -5.48332e-12 1.10778e-13 -1.74341e-12 
27 -4.16232e-12 1.2377e-12 1.31856e-12 
31 0 0 0 
35 0 0 0 
39 -2.29833e-11 -1.02694e-11 7.52243e-12 
43 -2.7345e-11 -8.01211e-12 -8.94048e-12 
47 0 0 0 
51 0 0 0 
55 -6.04631e-12 -7.33883e-12 -2.44812e-12 
59 -2.03929e-11 -7.21475e-12 -8.62817e-12 
63 -7.2073e-12 -1.1107e-11 -1.19074e-11 
67 6.07017e-11 -9.69826e-11 7.48774e-11 
71 1.43351e-10 -2.32969e-10 6.59034e-11 
75 7.62594e-11 -1.01607e-10 -1.95187e-11 
79 1.48713e-10 -1.56533e-10 -1.33117e-10 
83 2.52028e-11 -1.03867e-10 5.23828e-11 
87 5.97434e-11 -2.48748e-10 5.99755e-11 
91 7.25211e-11 -2.37982e-10 -5.3141e-11 
95 6.39099e-11 -1.95224e-10 -1.30041e-10 
99 -4.90684e-12 -1.06719e-11 6.91685e-12 
103 -9.85081e-12 -6.69458e-11 1.03904e-11 
107 -1.42193e-11 -8.14928e-11 -1.14115e-11 
111 -1.71196e-11 -1.0708e-10 -6.7037e-11 
115 -1.98869e-11 -3.24894e-11 4.57164e-12 
119 -1.9662e-11 -4.10227e-11 9.02488e-12 
123 -9.97415e-12 -5.22382e-12 -1.38327e-12 
127 -3.09112e-12 -6.11561e-12 -2.70756e-12 
131 4.70352e-11 3.42225e-11 -6.71536e-11 
135 1.08934e-10 4.02085e-11 -1.50692e-10 
139 1.48573e-10 -3.93911e-11 -1.86896e-10 
143 1.12853e-10 -1.04798e-10 -1.36673e-10 
147 3.40271e-11 1.19338e-10 -1.57211e-10 
151 5.92759e-11 4.92165e-11 -2.18193e-10 
155 5.61079e-11 -5.52952e-11 -2.42378e-10 
159 1.62715e-11 -5.33622e-11 -6.89128e-11 
163 0 0 0 
167 -2.13839e-11 1.90253e-11 -1.1009e-10 
171 -1.21174e-11 -1.84073e-11 -1.0739e-10 
175 -2.58572e-12 -8.76959e-12 -7.15227e-12 
179 0 0 0 
183 -1.44288e-11 1.80059e-12 -2.25574e-11 
187 -2.17284e-11 -7.41286e-12 -1.29906e-11 
191 -1.23683e-11 -4.54634e-12 -9.95189e-12 
4 -5.51536e-13 2.889e-12 2.09883e-12 
8 -1.56087e-11 1.76373e-11 1.44304e-11 
12 -1.04792e-11 1.41453e-11 -2.59095e-12 
16 0 0 0 
20 -1.0571e-11 1.5644e-12 1.42986e-11 
24 -1.99261e-11 1.1638e-11 -2.2574e-13 
28 -6.0081e-12 2.61497e-12 -1.27567e-12 
32 -1.17114e-11 2.36256e-12 -4.23345e-12 
36 -4.62282e-12 -3.30363e-12 1.02459e-11 
40 -8.61602e-12 1.2818e-12 9.12266e-12 
44 0 0 0 
48 0 0 0 
52 -6.08214e-12 -5.10386e-12 4.39898e-12 
56 -2.37096e-11 -1.41243e-11 -2.92364e-12 
60 0 0 0 
64 -1.08103e-11 -9.33294e-12 -7.86885e-12 
68 8.41784e-11 -8.2111e-11 5.57787e-11 
72 1.19885e-10 -1.37737e-10 2.66907e-11 
76 1.34951e-10 -1.69611e-10 -2.8794e-11 
80 5.27951e-11 -9.18928e-11 -5.02145e-11 
84 3.18618e-11 -8.89602e-11 6.57832e-11 
88 5.11233e-11 -1.97733e-10 5.65691e-11 
92 5.54204e-11 -1.9708e-10 -2.84227e-11 
96 1.45303e-11 -6.79231e-11 -5.54398e-11 
100 -5.41371e-12 -4.88843e-11 3.05565e-11 
104 -1.97415e-11 -1.05016e-10 2.0029e-11 
108 -1.02309e-11 -1.48859e-10 -4.21228e-11 
112 -5.59419e-12 -3.65131e-11 -2.7513e-11 
116 -5.20776e-12 -9.16642e-12 6.8104e-12 
120 -2.52097e-11 -1.97885e-11 1.15791e-11 
124 -1.18675e-11 -1.46478e-11 -7.55699e-12 
128 -2.07716e-11 -3.02909e-11 -2.02226e-11 
132 1.08549e-10 9.52478e-11 -1.30406e-10 
136 1.24768e-10 4.22312e-11 -1.73637e-10 
140 8.45172e-11 -1.87864e-11 -1.34119e-10 
144 8.4552e-11 -6.57379e-11 -1.24911e-10 
148 2.93849e-11 2.56535e-11 -5.8748e-11 
152 4.36447e-11 3.21859e-11 -1.27057e-10 
156 1.97409e-11 -3.09634e-11 -1.07735e-10 
160 1.99943e-11 -3.97526e-11 -5.02494e-11 
164 3.48763e-12 5.51767e-11 -7.479e-11 
168 -1.18076e-11 3.54231e-11 -1.63287e-10 
172 -3.03445e-11 -2.92911e-11 -1.17937e-10 
176 -5.206e-12 -2.2175e-11 -3.10196e-11 
180 -2.69947e-11 2.20362e-11 -4.82581e-11 
184 -1.0417e-11 7.68148e-12 -3.05565e-11 
188 -1.43191e-11 1.50811e-12 -2.33085e-11 
192 -6.247e-12 -1.3587e-11 -8.39665e-12 
ITEM: TIMESTEP
27000
ITEM: NUMBER OF SURFS
192
ITEM: BOX BOUNDS oo rr rr
0 0.0005
0 0.0005
0 0.0005
ITEM: SURFS id f_f_drag_blocks[1] f_f_drag_blocks[2] f_f_drag_blocks[3] 
1 1.01186e-10 5.64924e-11 7.30254e-11 
5 2.19738e-10 1.44947e-10 5.99709e-11 
9 2.70893e-10 1.84101e-10 -6.08372e-11 
13 7.78099e-11 5.46908e-11 -5.07745e-11 
17 2.52342e-10 2.5076e-11 1.7431e-10 
21 5.61523e-10 9.74506e-11 1.16661e-10 
25 4.95977e-10 1.2263e-10 -1.37901e-10 
29 3.4335e-10 8.0476e-11 -2.30204e-10 
33 2.63393e-10 -4.58759e-11 1.88676e-10 
37 5.43372e-10 -8.43562e-11 1.0347e-10 
41 6.1282e-10 -1.43087e-10 -1.30436e-10 
45 3.45013e-10 -6.10548e-11 -2.17175e-10 
49 1.60093e-10 -6.93903e-11 8.24813e-11 
53 1.86259e-10 -1.14808e-10 2.11371e-11 
57 2.96645e-10 -1.66651e-10 -5.5764e-11 
61 1.67036e-10 -1.51737e-10 -9.45984e-11 
65 7.06204e-11 9.81747e-11 6.26447e-11 
69 1.12238e-10 1.31633e-10 3.50881e-11 
73 1.43236e-10 1.73819e-10 -4.28851e-11 
77 4.85359e-11 4.21672e-11 -4.96434e-11 
81 1.76877e-11 6.80083e-11 4.17223e-11 
85 6.48128e-11 1.57388e-10 1.92141e-11 
89 5.99469e-11 2.81841e-10 -6.62485e-11 
93 9.94316e-12 5.75171e-11 -4.29953e-11 
97 -1.78708e-11 5.77816e-11 3.6638e-11 
101 -1.36476e-11 7.72787e-11 2.72104e-11 
105 -5.98331e-12 6.42771e-11 -5.80473e-12 
109 -6.8045e-12 4.07741e-11 -3.31084e-11 
113 0 0 0 
117 -9.66838e-12 3.04033e-11 5.89827e-12 
121 -2.16342e-11 1.51963e-11 -6.11926e-13 
125 -3.37968e-12 1.38845e-12 -3.19509e-12 
129 4.28901e-11 4.44183e-11 5.2134e-11 
133 1.77842e-10 8.96577e-11 2.36759e-10 
137 1.16829e-10 -5.19208e-11 1.9068e-10 
141 6.84214e-11 -5.03779e-11 6.02131e-11 
145 2.04197e-11 6.89127e-11 9.0834e-11 
149 6.31245e-11 5.04091e-11 2.07473e-10 
153 4.6864e-11 -6.41906e-11 1.87569e-10 
157 7.40155e-11 -9.54746e-11 1.24415e-10 
161 -5.40594e-12 1.6494e-11 2.7556e-11 
165 -1.29944e-11 1.80675e-11 5.5315e-11 
169 6.1654e-13 -2.03271e-11 1.06987e-10 
173 6.0985e-12 -2.45524e-11 3.20813e-11 
177 -6.20996e-12 1.84606e-11 9.91443e-12 
181 -1.97156e-11 3.97494e-12 2.13529e-11 
185 -6.28428e-12 2.50313e-14 8.46969e-13 
189 -2.04184e-11 -2.09544e-11 3.47194e-11 
2 1.69828e-10 1.32967e-10 9.79523e-11 
6 1.38985e-10 1.13584e-10 3.86806e-11 
10 2.61361e-10 1.5798e-10 -2.88903e-11 
14 1.27461e-10 5.50677e-11 -6.76134e-11 
18 2.20011e-10 4.16968e-11 1.34694e-10 
22 6.17313e-10 1.47654e-10 1.04619e-10 
26 4.05279e-10 8.97303e-11 -9.81664e-11 
30 2.35736e-10 3.5177e-11 -1.36484e-10 
34 3.05106e-10 -6.1903e-11 2.46692e-10 
38 6.08357e-10 -1.33631e-10 1.48505e-10 
42 5.39729e-10 -1.18617e-10 -1.46611e-10 
46 1.93452e-10 -4.31213e-11 -1.27929e-10 
50 1.38264e-10 -9.53691e-11 9.76005e-11 
54 2.92616e-10 -2.07995e-10 4.75638e-11 
58 2.91728e-10 -1.77631e-10 -8.55311e-11 
62 1.43118e-10 -7.66273e-11 -9.23713e-11 
66 1.00433e-10 1.01514e-10 7.56137e-11 
70 1.1428e-10 1.32959e-10 1.35664e-11 
74 8.22252e-11 1.21912e-10 -2.4118e-11 
78 2.51895e-11 2.91747e-11 -9.51059e-12 
82 3.03031e-11 1.08606e-10 5.83936e-11 
86 5.34363e-11 2.0844e-10 4.71959e-11 
90 5.42935e-11 2.28554e-10 4.39724e-12 
94 2.91577e-11 7.01699e-11 -4.53675e-11 
98 -4.94737e-12 5.06081e-11 3.68645e-11 
102 -1.73033e-11 1.34447e-10 2.97132e-11 
106 -1.66095e-12 1.06853e-10 -4.00523e-11 
110 1.23127e-12 2.21016e-11 -1.14589e-11 
114 0 0 0 
118 -2.2764e-11 3.2952e-11 1.39888e-11 
122 -1.52014e-11 2.2136e-11 -6.17214e-12 
126 -4.0422e-12 1.70448e-11 -1.19644e-11 
130 8.27888e-11 6.74962e-11 9.57376e-11 
134 2.0551e-10 4.51787e-11 2.41651e-10 
138 1.32832e-10 -4.76181e-11 1.91772e-10 
142 5.08675e-11 -3.32309e-11 7.10613e-11 
146 4.58015e-11 9.40932e-11 1.47667e-10 
150 5.46574e-11 4.30951e-11 1.32179e-10 
154 5.38992e-11 -1.89383e-11 1.65642e-10 
158 2.03284e-11 -4.23839e-11 8.25176e-11 
162 -7.62849e-12 2.2977e-11 3.88873e-11 
166 -2.03859e-11 1.90517e-11 7.06167e-11 
170 -2.70134e-11 -3.03352e-11 1.22885e-10 
174 -1.30955e-11 -4.58724e-11 5.07682e-11 
178 -9.00735e-12 1.70753e-11 1.61652e-11 
182 1.00374e-12 -6.37662e-13 1.74175e-11 
186 -7.50202e-12 -3.503e-12 1.38779e-11 
190 -1.11072e-11 -1.9731e-11 1.89817e-11 
3 0 0 0 
7 -4.25796e-12 1.71993e-11 4.53621e-12 
11 -2.83597e-11 1.60863e-11 -4.78466e-12 
15 -4.82149e-12 6.07351e-12 -2.73133e-12 
19 -2.50831e-12 4.44623e-12 2.87697e-12 
23 0 0 0 
27 0 0 0 
31 -1.06515e-11 1.97781e-12 -2.51573e-12 
35 0 0 0 
39 -1.36969e-11 -1.68868e-12 1.03834e-12 
43 -7.90339e-12 -7.23619e-12 -4.77614e-12 
47 -1.13094e-11 -1.5023e-12 -1.08516e-11 
51 0 0 0 
55 0 0 0 
59 -1.35285e-11 -1.21918e-11 -6.15629e-13 
63 -2.17336e-12 -6.6088e-12 -5.42666e-12 
67 7.66129e-11 -1.00181e-10 6.56999e-11 
71 1.16223e-10 -1.65996e-10 3.94363e-11 
75 1.3624e-10 -1.84382e-10 -3.01978e-11 
79 6.96962e-11 -8.34216e-11 -6.34505e-11 
83 2.21428e-11 -1.61508e-10 9.65297e-11 
87 3.43821e-11 -1.56473e-10 2.19937e-11 
91 1.49145e-10 -3.49047e-10 -7.04972e-11 
95 2.74962e-11 -8.16164e-11 -6.63619e-11 
99 -1.25121e-11 -7.47899e-11 4.9075e-11 
103 8.32008e-12 -4.06426e-11 1.1397e-11 
107 -1.49886e-11 -5.79066e-11 -9.0558e-12 
111 -4.39214e-12 -1.67696e-11 -7.38049e-12 
115 -1.82691e-11 -2.7147e-11 9.67487e-12 
119 -1.01973e-11 -1.33406e-11 -4.4617e-13 
123 -1.17088e-11 -2.81966e-11 -6.11449e-12 
127 0 0 0 
131 7.41984e-11 1.02597e-10 -1.16885e-10 
135 9.93204e-11 3.03752e-11 -1.21373e-10 
139 1.5936e-10 -6.38253e-11 -2.02224e-10 
143 1.23386e-10 -1.32219e-10 -1.67418e-10 
147 2.64479e-11 7.1271e-11 -1.20419e-10 
151 4.20591e-11 3.04669e-11 -1.00298e-10 
155 5.19491e-11 -3.38806e-11 -1.98522e-10 
159 4.02076e-11 -8.93155e-11 -9.53024e-11 
163 -4.02834e-13 3.58617e-11 -3.4833e-11 
167 -2.74845e-11 2.46656e-11 -1.42515e-10 
171 -5.51068e-12 -1.2161e-11 -5.19149e-11 
175 -1.09829e-11 -2.85467e-11 -4.335e-11 
179 -8.00908e-12 1.13269e-11 -2.17377e-11 
183 -5.08626e-12 4.55276e-12 -1.00546e-11 
187 -3.57308e-11 -1.25008e-11 -3.64529e-11 
191 -4.75734e-12 -1.09524e-11 -3.19767e-12 
4 -1.528e-11 5.46488e-12 1.14764e-11 
8 -9.06858e-12 7.20428e-12 3.86046e-12 
12 0 0 0 
16 0 0 0 
20 -1.3034e-11 1.50257e-12 1.04467e-11 
24 -2.36793e-11 -8.47751e-12 6.57169e-12 
28 0 0 0 
32 0 0 0 
36 -8.2015e-12 -2.84497e-12 1.69951e-11 
40 -1.48487e-11 -4.60784e-12 5.25467e-12 
44 -8.11169e-12 -3.97932e-12 -1.57518e-12 
48 -1.07306e-11 -2.72453e-12 -1.04927e-11 
52 0 0 0 
56 -3.19293e-12 -9.16342e-12 1.17279e-12 
60 -7.75209e-12 -2.2339e-12 -4.71532e-12 
64 -8.66013e-12 -1.14602e-11 -1.20737e-11 
68 7.3308e-11 -1.0442e-10 6.98065e-11 
72 1.65317e-10 -2.30031e-10 6.74822e-11 
76 8.26294e-11 -1.3862e-10 -2.20742e-11 
80 2.82976e-11 -5.72011e-11 -3.17919e-11 
84 3.94114e-11 -9.06752e-11 5.53388e-11 
88 3.08473e-11 -1.3626e-10 3.35579e-11 
92 6.26194e-11 -1.73396e-10 -2.68342e-11 
96 2.82387e-11 -6.25782e-11 -3.91553e-11 
100 -2.7206e-11 -1.05902e-10 7.75615e-11 
104 -1.43846e-11 -9.02825e-11 1.68393e-11 
108 -2.19649e-11 -7.09578e-11 -2.10007e-11 
112 -1.29767e-11 -8.04048e-11 -5.51624e-11 
116 -1.56392e-11 -2.43741e-11 2.73802e-11 
120 -2.4374e-11 -2.41445e-11 8.37756e-12 
124 -4.53675e-12 -2.87029e-12 -4.24307e-12 
128 -1.82946e-11 -4.79297e-11 -2.60782e-11 
132 7.27386e-11 5.78649e-11 -8.68007e-11 
136 1.53175e-10 5.68851e-11 -1.92503e-10 
140 1.31953e-10 -4.23225e-11 -2.02568e-10 
144 7.4361e-11 -4.52307e-11 -1.01659e-10 
148 1.73861e-11 3.04024e-11 -7.46008e-11 
152 4.86626e-11 3.05076e-11 -2.21064e-10 
156 4.01879e-11 -3.11594e-11 -1.24583e-10 
160 1.81985e-11 -4.44711e-11 -7.43926e-11 
164 -6.88906e-12 3.10719e-11 -6.78884e-11 
168 -2.49626e-11 4.59515e-12 -6.47294e-11 
172 -2.67277e-11 -2.85563e-11 -9.14505e-11 
176 -8.67289e-12 -1.29667e-11 -1.67564e-11 
180 -2.48224e-11 2.10973e-11 -2.20353e-11 
184 -3.59964e-12 1.44346e-12 -5.97172e-12 
188 -9.80893e-12 -1.6429e-11 -2.73731e-11 
192 1.57662e-12 -3.62326e-13 -4.31866e-12 
ITEM: TIMESTEP
28000
ITEM: NUMBER OF SURFS
192
ITEM: BOX BOUNDS oo rr rr
0 0.0005
0 0.0005
0 0.0005
ITEM: SURFS id f_f_drag_blocks[1] f_f_drag_blocks[2] f_f_drag_blocks[3] 
1 2.03167e-10 9.59761e-11 1.42143e-10 
5 2.51049e-10 1.70279e-10 6.71088e-11 
9 2.83526e-10 1.94755e-10 -6.14348e-11 
13 1.06369e-10 7.87751e-11 -7.23645e-11 
17 1.75795e-10 1.5645e-11 1.33843e-10 
21 5.05014e-10 7.82893e-11 1.28341e-10 
25 4.32476e-10 8.24775e-11 -1.01439e-10 
29 2.15584e-10 4.21199e-11 -1.47818e-10 
33 2.23731e-10 -3.861e-11 1.29291e-10 
37 4.16698e-10 -7.96622e-11 6.88532e-11 
41 6.95267e-10 -1.65075e-10 -1.48012e-10 
45 2.14239e-10 -3.48469e-11 -1.25278e-10 
49 1.2643e-10 -5.773e-11 5.66526e-11 
53 2.00724e-10 -1.12916e-10 4.42892e-11 
57 2.53685e-10 -1.83528e-10 -5.53379e-11 
61 1.03506e-10 -7.02271e-11 -5.38313e-11 
65 7.04238e-11 8.81465e-11 5.33489e-11 
69 9.93439e-11 1.2532e-10 3.73637e-11 
73 1.30249e-10 1.89129e-10 -3.13941e-11 
77 1.05118e-10 1.11433e-10 -9.15686e-11 
81 1.4604e-11 1.20192e-10 9.42849e-11 
85 4.95677e-11 1.91668e-10 5.31949e-11 
89 5.12346e-11 1.77729e-10 -4.24828e-11 
93 5.56248e-11 1.46623e-10 -1.02745e-10 
97 -6.80507e-12 3.47105e-11 2.69851e-11 
101 -7.09618e-12 7.53044e-11 1.14985e-11 
105 8.8174e-12 7.16871e-11 -9.52576e-12 
109 -3.99546e-12 7.42463e-11 -4.72722e-11 
113 -4.46205e-12 8.57308e-12 9.86339e-12 
117 -8.94448e-12 3.66516e-12 1.77618e-12 
121 -4.07788e-12 5.18555e-12 -1.05022e-11 
125 -3.00152e-11 4.30963e-11 -3.1438e-11 
129 6.89111e-11 7.7121e-11 1.14425e-10 
133 1.68895e-10 8.06089e-11 2.2221e-10 
137 1.49572e-10 -8.03175e-11 2.11569e-10 
141 1.02613e-10 -8.45916e-11 1.07906e-10 
145 2.79366e-11 5.25373e-11 8.42048e-11 
149 2.31914e-11 3.08824e-11 1.45635e-10 
153 1.00131e-10 -5.78775e-11 2.48835e-10 
157 2.65602e-11 -8.24199e-11 1.06229e-10 
161 -8.40371e-12 2.24879e-11 5.62342e-11 
165 -1.34537e-11 3.15816e-11 1.07662e-10 
169 -3.72764e-11 -2.49827e-11 1.25907e-10 
173 -1.07591e-11 -6.75579e-11 8.26224e-11 
177 0 0 0 
181 -1.41146e-11 1.17715e-11 3.99517e-11 
185 -1.52086e-11 -2.15015e-12 2.25153e-11 
189 -4.30718e-12 -3.95832e-12 -1.0313e-12 
2 1.45789e-10 9.32256e-11 6.63806e-11 
6 2.30848e-10 1.54785e-10 3.42018e-11 
10 2.27221e-10 1.42419e-10 -2.77307e-11 
14 1.84668e-10 9.1567e-11 -7.31126e-11 
18 8.1905e-11 2.35545e-11 5.63547e-11 
22 5.9718e-10 1.08134e-10 1.29214e-10 
26 4.08887e-10 8.96005e-11 -8.26297e-11 
30 1.16211e-10 4.92038e-11 -7.33393e-11 
34 2.45553e-10 -6.341e-11 1.34494e-10 
38 6.17875e-10 -1.13175e-10 1.57128e-10 
42 3.47554e-10 -8.7936e-11 -8.2939e-11 
46 2.31637e-10 -7.246e-11 -1.56611e-10 
50 1.80485e-10 -1.47085e-10 1.28558e-10 
54 2.39716e-10 -1.78237e-10 4.61802e-11 
58 2.47124e-10 -1.65685e-10 -3.73268e-11 
62 5.96517e-11 -2.75856e-11 -4.09907e-11 
66 7.14194e-11 4.43685e-11 4.61992e-11 
70 1.10525e-10 1.35181e-10 2.97097e-11 
74 1.70766e-10 2.38457e-10 -5.1325e-11 
78 9.68102e-11 1.55008e-10 -7.51655e-11 
82 2.8239e-11 8.15624e-11 4.15161e-11 
86 1.19643e-10 3.30143e-10 6.09015e-11 
90 3.60819e-11 1.80215e-10 -3.3173e-11 
94 2.80605e-11 1.28919e-10 -1.05981e-10 
98 -1.69231e-11 3.70606e-11 4.43363e-11 
102 -4.96654e-11 1.51052e-10 5.13895e-11 
106 -9.83242e-12 5.60188e-11 -1.05906e-11 
110 -8.35911e-12 4.58375e-11 -3.02602e-11 
114 -4.17231e-12 9.87532e-12 8.38362e-12 
118 -1.44686e-11 1.53827e-11 -1.48651e-12 
122 -2.47901e-11 2.64777e-11 -1.54776e-11 
126 -1.04329e-11 1.6523e-11 -1.31835e-11 
130 5.34029e-11 5.55427e-11 7.75012e-11 
134 1.24361e-10 3.72656e-11 1.72513e-10 
138 8.08475e-11 -3.37219e-11 1.13475e-10 
142 1.64281e-11 -1.92901e-11 2.81951e-11 
146 3.91572e-11 7.86235e-11 1.23912e-10 
150 5.95166e-11 2.92864e-11 1.80342e-10 
154 6.27637e-11 -3.37692e-11 2.31284e-10 
158 3.094e-11 -7.09599e-11 1.16652e-10 
162 -5.0712e-12 6.04157e-11 8.62217e-11 
166 -1.75184e-11 2.15919e-11 6.76103e-11 
170 -2.24199e-11 -2.31183e-11 1.11054e-10 
174 -7.06889e-12 -2.12449e-11 3.30134e-11 
178 -8.12543e-13 -3.52793e-12 6.72993e-12 
182 -5.17399e-12 1.34677e-11 2.14154e-11 
186 0 0 0 
190 -1.00277e-11 -1.36589e-11 1.28557e-11 
3 -2.42958e-11 1.1002e-12 1.57633e-11 
7 -2.02784e-11 2.17772e-11 1.07037e-11 
11 -1.81951e-11 1.24768e-11 4.14066e-13 
15 -5.42171e-12 1.04455e-11 -1.08064e-11 
19 -1.50899e-11 1.28669e-12 1.10481e-11 
23 0 0 0 
27 0 0 0 
31 -3.86865e-12 7.86656e-13 -1.42511e-11 
35 0 0 0 
39 0 0 0 
43 0 0 0 
47 -1.59304e-11 -1.94822e-12 -1.49829e-11 
51 -1.14396e-11 -7.99326e-12 4.53054e-12 
55 -8.42611e-12 -1.31093e-11 8.16674e-12 
59 0 0 0 
63 0 0 0 
67 5.74922e-11 -8.58139e-11 5.19847e-11 
71 1.07784e-10 -1.4427e-10 3.85597e-11 
75 9.92074e-11 -1.40749e-10 -4.02405e-11 
79 7.88081e-11 -1.03677e-10 -8.55769e-11 
83 2.93598e-11 -8.89413e-11 5.26885e-11 
87 5.35228e-11 -1.91585e-10 4.78505e-11 
91 4.33716e-11 -1.48258e-10 -2.97273e-11 
95 4.73481e-11 -1.0771e-10 -8.91013e-11 
99 -2.40332e-12 -3.96155e-11 2.46742e-11 
103 -1.39892e-11 -9.93609e-11 9.31235e-12 
107 -5.81716e-12 -7.33826e-11 -1.61206e-11 
111 -3.85065e-12 -3.64378e-11 -2.40336e-11 
115 -8.0002e-12 -2.35581e-11 1.43242e-11 
119 -1.3982e-11 -2.54876e-11 6.15468e-12 
123 -2.09403e-11 -1.76272e-11 -3.62899e-12 
127 0 0 0 
131 4.42465e-11 5.84085e-11 -6.37898e-11 
135 1.8151e-10 7.2418e-11 -2.12817e-10 
139 1.39387e-10 -5.07981e-11 -1.60578e-10 
143 7.56938e-11 -7.94267e-11 -8.53629e-11 
147 2.7306e-11 8.32823e-11 -1.2858e-10 
151 3.65333e-11 4.98634e-11 -1.46804e-10 
155 6.72202e-11 -8.52906e-11 -2.70129e-10 
159 5.40579e-11 -1.10291e-10 -1.53881e-10 
163 1.11906e-12 3.46075e-11 -3.6554e-11 
167 -9.81214e-12 7.27545e-12 -3.65852e-11 
171 -1.16549e-11 -1.61481e-11 -7.50616e-11 
175 1.30226e-11 -6.88771e-11 -8.05982e-11 
179 -7.88487e-12 1.49012e-11 -2.42633e-11 
183 -1.14454e-11 8.37236e-12 -3.16896e-11 
187 0 0 0 
191 -1.60006e-11 -8.49218e-12 -1.09548e-11 
4 -8.48417e-12 4.91754e-12 4.23192e-12 
8 -1.11881e-11 1.19723e-11 5.13937e-12 
12 -7.81506e-12 9.17801e-12 -2.37948e-12 
16 -7.93032e-12 2.78501e-12 -9.69751e-12 
20 -1.44995e-11 2.58517e-13 5.31665e-12 
24 -6.62628e-12 -1.33652e-12 -4.71978e-12 
28 -1.49669e-11 2.465e-12 -7.76801e-12 
32 0 0 0 
36 -1.85079e-11 -1.29863e-12 1.26287e-11 
40 -2.74459e-11 -1.49875e-13 6.90198e-12 
44 -9.90278e-12 -1.54625e-12 5.10425e-13 
48 -1.03533e-11 7.44763e-13 -9.72368e-12 
52 -1.46876e-11 -8.98233e-12 8.05296e-12 
56 -1.32314e-11 -1.77398e-11 3.74226e-12 
60 -2.51952e-11 -2.10806e-11 -1.18962e-11 
64 0 0 0 
68 1.03051e-10 -1.54611e-10 8.79511e-11 
72 7.10562e-11 -7.96292e-11 1.25119e-11 
76 1.58246e-10 -1.99276e-10 -2.66171e-11 
80 6.21718e-11 -1.01208e-10 -6.74354e-11 
84 3.42819e-11 -1.13551e-10 7.26557e-11 
88 6.54077e-11 -1.97497e-10 5.50498e-11 
92 4.76225e-11 -1.66577e-10 -2.88689e-11 
96 2.02066e-11 -6.40159e-11 -5.22624e-11 
100 -7.9719e-12 -4.73615e-11 4.76217e-11 
104 -1.34684e-11 -8.99217e-11 1.16882e-11 
108 -2.1579e-11 -1.34268e-10 -1.59225e-11 
112 -4.25504e-12 -2.1772e-11 -1.54003e-11 
116 -6.31217e-12 -2.01459e-11 1.60747e-11 
120 -3.73495e-12 -8.67396e-12 1.86584e-12 
124 -5.8244e-12 -2.17589e-11 -1.42581e-11 
128 -1.84735e-11 -4.10502e-11 -3.15924e-11 
132 9.67515e-11 8.01299e-11 -1.13861e-10 
136 9.13303e-11 2.88421e-11 -1.23519e-10 
140 1.10579e-10 -2.29478e-11 -1.57579e-10 
144 8.23923e-11 -5.45221e-11 -1.04597e-10 
148 4.51361e-11 9.93497e-11 -1.14707e-10 
152 6.36208e-11 2.83831e-11 -1.61979e-10 
156 7.5437e-11 -7.17582e-11 -2.51703e-10 
160 1.56006e-11 -3.02921e-11 -3.6694e-11 
164 -9.87011e-12 3.59523e-11 -4.25896e-11 
168 1.72246e-12 1.00511e-11 -5.74699e-11 
172 -8.6721e-12 -1.06735e-11 -6.75571e-11 
176 -1.25115e-11 -3.90204e-11 -5.27514e-11 
180 0 0 0 
184 -1.41991e-11 5.80643e-12 -2.26562e-11 
188 -3.88004e-12 -2.77808e-13 -4.66432e-12 
192 -1.90009e-11 -1.40473e-11 -2.49742e-11 
ITEM: TIMESTEP
29000
ITEM: NUMBER OF SURFS
192
ITEM: BOX BOUNDS oo rr rr
0 0.0005
0 0.0005
0 0.0005
ITEM: SURFS id f_f_drag_blocks[1] f_f_drag_blocks[2] f_f_drag_blocks[3] 
1 5.28528e-11 3.15704e-11 3.34191e-11 
5 3.34054e-10 2.10618e-10 7.63935e-11 
9 2.22923e-10 1.68341e-10 -4.34813e-11 
13 1.00956e-10 8.13246e-11 -6.86357e-11 
17 1.88384e-10 5.92408e-11 1.41479e-10 
21 4.20159e-10 8.18692e-11 9.30598e-11 
25 4.67504e-10 1.06345e-10 -1.37884e-10 
29 3.10484e-10 7.27506e-11 -2.3151e-10 
33 2.2751e-10 -5.03998e-11 1.33765e-10 
37 4.22817e-10 -5.92546e-11 6.33176e-11 
41 6.29439e-10 -1.4241e-10 -1.29386e-10 
45 3.25072e-10 -6.96807e-11 -1.89487e-10 
49 1.51735e-10 -8.80679e-11 9.36876e-11 
53 3.09171e-10 -1.91651e-10 5.98138e-11 
57 2.50859e-10 -1.55871e-10 -6.11199e-11 
61 1.10235e-10 -6.6698e-11 -5.6964e-11 
65 3.91119e-11 7.24024e-11 5.98091e-11 
69 1.23793e-10 1.68304e-10 4.43665e-11 
73 1.49778e-10 1.63338e-10 -3.88134e-11 
77 8.32325e-11 8.7222e-11 -8.16237e-11 
81 2.12604e-11 8.16851e-11 6.26528e-11 
85 4.78643e-11 2.09425e-10 4.96863e-11 
89 7.53654e-11 2.16166e-10 -2.8385e-11 
93 3.49788e-11 9.07514e-11 -5.78549e-11 
97 -4.03896e-12 3.4597e-11 1.82382e-11 
101 -1.5364e-11 1.55988e-10 5.38801e-12 
105 -2.66688e-11 1.18922e-10 -2.01674e-11 
109 -6.30665e-12 1.77399e-11 -2.88459e-11 
113 -1.35162e-11 5.51574e-11 3.2954e-11 
117 -1.05675e-11 1.27978e-11 8.49398e-12 
121 -4.66373e-12 1.43741e-11 -3.50191e-12 
125 -7.88103e-12 1.9539e-11 -1.2035e-11 
129 9.4502e-11 7.25635e-11 1.11413e-10 
133 1.85334e-10 7.66665e-11 2.37386e-10 
137 7.42069e-11 -4.15714e-11 1.29806e-10 
141 1.12345e-10 -9.07586e-11 1.02189e-10 
145 1.73141e-11 5.74377e-11 6.84249e-11 
149 3.50761e-11 3.83278e-11 1.37106e-10 
153 6.42128e-11 -3.86201e-11 2.24834e-10 
157 4.28842e-11 -9.36611e-11 1.03078e-10 
161 -1.13567e-11 4.64926e-11 7.49119e-11 
165 -1.85394e-11 4.44106e-11 1.05656e-10 
169 -1.5251e-11 -4.27808e-11 1.18417e-10 
173 4.68985e-12 -2.63995e-11 4.43619e-11 
177 -3.47881e-12 4.10975e-12 5.13846e-12 
181 -1.38483e-11 6.08937e-12 2.1339e-11 
185 -8.3142e-13 -1.29774e-12 1.01206e-11 
189 0 0 0 
2 9.5951e-11 6.54056e-11 5.23656e-11 
6 2.27465e-10 1.57533e-10 3.7314e-11 
10 2.70453e-10 1.81473e-10 -4.68179e-11 
14 1.15879e-10 5.78675e-11 -7.41606e-11 
18 1.69608e-10 5.36734e-11 1.02038e-10 
22 5.06008e-10 8.13922e-11 9.82241e-11 
26 3.46802e-10 4.74722e-11 -8.27149e-11 
30 1.79196e-10 2.33765e-11 -9.81198e-11 
34 3.42261e-10 -6.13642e-11 2.03216e-10 
38 6.35346e-10 -1.16424e-10 1.03874e-10 
42 6.16992e-10 -1.12224e-10 -1.39914e-10 
46 2.08157e-10 -2.13268e-11 -1.17578e-10 
50 2.2749e-10 -1.83659e-10 1.9379e-10 
54 2.96055e-10 -1.77289e-10 5.6173e-11 
58 3.09123e-10 -2.19256e-10 -8.10965e-11 
62 1.67963e-10 -6.72414e-11 -9.93307e-11 
66 7.81663e-11 8.81575e-11 5.79909e-11 
70 1.20023e-10 1.68721e-10 3.97717e-11 
74 5.21144e-11 9.39649e-11 -2.20783e-11 
78 6.58452e-11 1.00392e-10 -6.39774e-11 
82 2.02985e-11 8.25176e-11 5.25449e-11 
86 5.66843e-11 2.38974e-10 4.80127e-11 
90 3.34791e-11 1.50719e-10 -4.87599e-11 
94 1.56781e-11 1.22161e-10 -5.39724e-11 
98 -1.37703e-11 2.0194e-11 6.38181e-12 
102 -2.668e-11 1.1662e-10 2.54123e-11 
106 -1.97556e-11 8.50601e-11 -3.32708e-11 
110 -5.3824e-12 4.15896e-11 -2.55236e-11 
114 0 0 0 
118 -1.82852e-11 3.21521e-11 -4.05666e-12 
122 -1.61205e-11 2.7243e-11 -3.843e-12 
126 -2.90445e-11 3.68237e-11 -3.39182e-11 
130 1.03065e-10 5.02765e-11 1.11233e-10 
134 1.01868e-10 2.04221e-11 1.24354e-10 
138 1.74502e-10 -4.58623e-11 2.48999e-10 
142 5.32012e-11 -5.26943e-11 6.44042e-11 
146 1.98781e-11 2.58158e-11 6.0138e-11 
150 6.05133e-11 5.31563e-11 2.25871e-10 
154 3.20188e-11 -3.70935e-11 1.15603e-10 
158 2.03973e-11 -4.11878e-11 4.27605e-11 
162 -3.43293e-12 4.26298e-11 4.84985e-11 
166 -3.00584e-11 2.98915e-11 1.20522e-10 
170 -1.4026e-11 -4.84812e-11 2.04046e-10 
174 -8.02179e-12 -1.85916e-11 4.06098e-11 
178 0 0 0 
182 -1.88761e-11 8.18768e-14 2.10038e-11 
186 -4.99046e-12 -6.56446e-12 5.90866e-12 
190 -2.57315e-11 -3.58846e-11 4.36616e-11 
3 -1.39212e-11 7.94978e-12 1.03733e-11 
7 -3.82124e-11 3.06102e-11 3.52693e-12 
11 -1.65317e-11 1.19996e-11 -4.1335e-12 
15 -1.60829e-11 1.51924e-11 -2.82345e-11 
19 -1.43849e-11 9.73175e-14 1.14436e-11 
23 0 0 0 
27 -9.21052e-12 2.51471e-12 -3.89925e-12 
31 -8.42261e-12 1.10866e-12 -6.39221e-12 
35 -1.93282e-11 -1.00412e-11 1.0732e-11 
39 -4.297e-11 -5.18927e-14 6.81106e-12 
43 -1.77789e-11 -7.50848e-12 -1.19513e-11 
47 0 0 0 
51 0 0 0 
55 -4.48913e-12 -2.6036e-12 1.97793e-12 
59 0 0 0 
63 -2.04227e-11 -2.23949e-11 -2.57449e-11 
67 6.41962e-11 -9.65434e-11 6.52313e-11 
71 1.69599e-10 -2.18067e-10 5.97431e-11 
75 1.9193e-10 -2.43693e-10 -6.50319e-11 