ITEM: TIMESTEP
25000
ITEM: NUMBER OF SURFS
192
ITEM: BOX BOUNDS oo rr rr
0 0.0005
0 0.0005
0 0.0005
ITEM: SURFS id f_f_drag_blocks[1] f_f_drag_blocks[2] f_f_drag_blocks[3] 
1 0 0 0 
5 0 0 0 
9 0 0 0 
13 0 0 0 
17 0 0 0 
21 0 0 0 
25 0 0 0 
29 0 0 0 
33 0 0 0 
37 0 0 0 
41 0 0 0 
45 0 0 0 
49 0 0 0 
53 0 0 0 
57 0 0 0 
61 0 0 0 
65 0 0 0 
69 0 0 0 
73 0 0 0 
77 0 0 0 
81 0 0 0 
85 0 0 0 
89 0 0 0 
93 0 0 0 
97 0 0 0 
101 0 0 0 
105 0 0 0 
109 0 0 0 
113 0 0 0 
117 0 0 0 
121 0 0 0 
125 0 0 0 
129 0 0 0 
133 0 0 0 
137 0 0 0 
141 0 0 0 
145 0 0 0 
149 0 0 0 
153 0 0 0 
157 0 0 0 
161 0 0 0 
165 0 0 0 
169 0 0 0 
173 0 0 0 
177 0 0 0 
181 0 0 0 
185 0 0 0 
189 0 0 0 
2 0 0 0 
6 0 0 0 
10 0 0 0 
14 0 0 0 
18 0 0 0 
22 0 0 0 
26 0 0 0 
30 0 0 0 
34 0 0 0 
38 0 0 0 
42 0 0 0 
46 0 0 0 
50 0 0 0 
54 0 0 0 
58 0 0 0 
62 0 0 0 
66 0 0 0 
70 0 0 0 
74 0 0 0 
78 0 0 0 
82 0 0 0 
86 0 0 0 
90 0 0 0 
94 0 0 0 
98 0 0 0 
102 0 0 0 
106 0 0 0 
110 0 0 0 
114 0 0 0 
118 0 0 0 
122 0 0 0 
126 0 0 0 
130 0 0 0 
134 0 0 0 
138 0 0 0 
142 0 0 0 
146 0 0 0 
150 0 0 0 
154 0 0 0 
158 0 0 0 
162 0 0 0 
166 0 0 0 
170 0 0 0 
174 0 0 0 
178 0 0 0 
182 0 0 0 
186 0 0 0 
190 0 0 0 
3 0 0 0 
7 0 0 0 
11 0 0 0 
15 0 0 0 
19 0 0 0 
23 0 0 0 
27 0 0 0 
31 0 0 0 
35 0 0 0 
39 0 0 0 
43 0 0 0 
47 0 0 0 
51 0 0 0 
55 0 0 0 
59 0 0 0 
63 0 0 0 
67 0 0 0 
71 0 0 0 
75 0 0 0 
79 0 0 0 
83 0 0 0 
87 0 0 0 
91 0 0 0 
95 0 0 0 
99 0 0 0 
103 0 0 0 
107 0 0 0 
111 0 0 0 
115 0 0 0 
119 0 0 0 
123 0 0 0 
127 0 0 0 
131 0 0 0 
135 0 0 0 
139 0 0 0 
143 0 0 0 
147 0 0 0 
151 0 0 0 
155 0 0 0 
159 0 0 0 
163 0 0 0 
167 0 0 0 
171 0 0 0 
175 0 0 0 
179 0 0 0 
183 0 0 0 
187 0 0 0 
191 0 0 0 
4 0 0 0 
8 0 0 0 
12 0 0 0 
16 0 0 0 
20 0 0 0 
24 0 0 0 
28 0 0 0 
32 0 0 0 
36 0 0 0 
40 0 0 0 
44 0 0 0 
48 0 0 0 
52 0 0 0 
56 0 0 0 
60 0 0 0 
64 0 0 0 
68 0 0 0 
72 0 0 0 
76 0 0 0 
80 0 0 0 
84 0 0 0 
88 0 0 0 
92 0 0 0 
96 0 0 0 
100 0 0 0 
104 0 0 0 
108 0 0 0 
112 0 0 0 
116 0 0 0 
120 0 0 0 
124 0 0 0 
128 0 0 0 
132 0 0 0 
136 0 0 0 
140 0 0 0 
144 0 0 0 
148 0 0 0 
152 0 0 0 
156 0 0 0 
160 0 0 0 
164 0 0 0 
168 0 0 0 
172 0 0 0 
176 0 0 0 
180 0 0 0 
184 0 0 0 
188 0 0 0 
192 0 0 0 
ITEM: TIMESTEP
26000
ITEM: NUMBER OF SURFS
192
ITEM: BOX BOUNDS oo rr rr
0 0.0005
0 0.0005
0 0.0005
ITEM: SURFS id f_f_drag_blocks[1] f_f_drag_blocks[2] f_f_drag_blocks[3] 
1 0 0 0 
5 4.4181e-10 1.76782e-10 4.04025e-11 
9 6.63487e-10 3.18723e-10 -1.458e-10 
13 0 0 0 
17 8.98417e-10 1.70788e-10 6.49038e-10 
21 3.36047e-10 6.73114e-12 7.1381e-11 
25 6.75352e-10 1.70004e-10 -1.28865e-10 
29 2.248e-10 4.1423e-11 -1.20538e-10 
33 1.85179e-10 -4.35294e-11 1.23839e-10 
37 3.25706e-10 -4.5787e-11 -4.78603e-12 
41 3.97582e-10 -9.55707e-11 -2.16218e-11 
45 5.30467e-10 -1.21442e-10 -3.06114e-10 
49 3.9504e-11 6.54836e-12 -8.71877e-12 
53 1.11149e-10 -1.10977e-10 7.09026e-11 
57 1.48795e-10 -1.04153e-10 -7.95322e-12 
61 3.08756e-10 -1.83674e-10 -1.79484e-10 
65 0 0 0 
69 2.51014e-10 3.19137e-10 1.65478e-10 
73 9.51438e-11 8.12633e-11 -9.15397e-12 
77 1.31955e-10 1.00259e-10 -1.43136e-10 
81 0 0 0 
85 3.32958e-11 1.66087e-10 2.29781e-11 
89 2.4897e-10 5.70749e-10 -2.50119e-11 
93 4.45479e-12 9.41597e-11 -2.1992e-10 
97 0 0 0 
101 0 0 0 
105 -2.49993e-11 4.07676e-10 -2.82713e-11 
109 0 0 0 
113 0 0 0 
117 0 0 0 
121 -4.78319e-11 3.24472e-11 -3.17912e-11 
125 0 0 0 
129 0 0 0 
133 0 0 0 
137 1.92607e-11 -2.60326e-11 6.44207e-11 
141 2.43434e-10 -2.43282e-10 2.81221e-10 
145 5.08328e-11 1.46194e-10 2.05471e-10 
149 0 0 0 
153 1.2608e-10 -6.56135e-11 3.05841e-10 
157 0 0 0 
161 -1.07435e-10 1.2489e-10 1.44537e-10 
165 0 0 0 
169 9.16235e-12 9.07445e-12 7.74268e-11 
173 0 0 0 
177 0 0 0 
181 -6.90774e-11 1.00367e-11 7.52683e-11 
185 -5.33744e-11 -3.23026e-11 1.05964e-11 
189 4.14675e-13 -4.2194e-12 4.26846e-11 
2 0 0 0 
6 4.12883e-10 2.9891e-10 2.63543e-11 
10 7.78029e-11 7.48973e-11 3.18585e-11 
14 1.28559e-10 6.7657e-11 -5.141e-11 
18 0 0 0 
22 3.93127e-10 3.50787e-11 1.39381e-10 
26 2.52032e-10 6.73104e-11 -8.548e-11 
30 0 0 0 
34 9.36152e-11 -5.63082e-11 2.42424e-11 
38 9.94271e-10 -1.82715e-10 3.18913e-10 
42 8.98534e-10 -1.87742e-10 -1.17547e-10 
46 4.15516e-10 -9.0223e-11 -2.30723e-10 
50 0 0 0 
54 3.21061e-10 -2.20404e-10 4.69176e-11 
58 2.62677e-10 -1.8147e-10 -1.34047e-10 
62 0 0 0 
66 0 0 0 
70 0 0 0 
74 1.54979e-10 2.43583e-10 -8.5215e-11 
78 0 0 0 
82 6.66253e-11 7.73314e-11 4.61635e-11 
86 0 0 0 
90 1.4884e-11 2.6387e-10 -2.56064e-11 
94 0 0 0 
98 -4.22421e-11 1.45762e-10 7.59529e-11 
102 -2.14642e-11 7.75659e-11 -1.5558e-11 
106 0 0 0 
110 0 0 0 
114 -7.44257e-11 9.98004e-11 5.76729e-11 
118 0 0 0 
122 0 0 0 
126 -2.0272e-11 4.74649e-11 -6.03266e-11 
130 1.68199e-10 1.37742e-10 2.5856e-10 
134 3.09798e-10 4.25968e-11 4.12665e-10 
138 0 0 0 
142 0 0 0 
146 1.24829e-10 1.30204e-10 2.90316e-10 
150 0 0 0 
154 8.18848e-12 -2.38275e-11 7.19509e-11 
158 2.37715e-11 -6.17373e-11 1.21192e-10 
162 -2.49777e-11 1.19308e-10 1.13449e-10 
166 0 0 0 
170 -3.28788e-11 1.74259e-11 2.80452e-10 
174 4.51606e-12 -7.6754e-11 1.516e-10 
178 0 0 0 
182 0 0 0 
186 0 0 0 
190 0 0 0 
3 -9.55026e-11 7.29132e-11 4.81968e-11 
7 0 0 0 
11 0 0 0 
15 0 0 0 
19 -5.25013e-11 2.06644e-11 1.62653e-11 
23 0 0 0 
27 -1.98206e-10 1.66702e-11 -7.08837e-11 
31 0 0 0 
35 0 0 0 
39 0 0 0 
43 -7.40909e-11 -3.97573e-11 -2.76855e-11 
47 0 0 0 
51 0 0 0 
55 0 0 0 
59 0 0 0 
63 0 0 0 
67 0 0 0 
71 9.53883e-11 -1.29698e-10 3.07224e-11 
75 6.27075e-11 -8.67782e-11 3.28255e-11 
79 1.3134e-10 -1.8375e-10 -1.89622e-10 
83 0 0 0 
87 -1.69444e-11 -8.50441e-11 5.2789e-11 
91 0 0 0 
95 0 0 0 
99 -6.49535e-12 -1.44749e-10 1.06388e-10 
103 0 0 0 
107 -2.54816e-11 -7.91986e-11 -1.00887e-11 
111 0 0 0 
115 -7.35094e-11 -1.72323e-10 1.17837e-10 
119 0 0 0 
123 0 0 0 
127 -6.52433e-12 -1.07569e-10 -6.40347e-11 
131 6.95607e-11 6.98248e-11 -9.48057e-11 
135 1.8625e-10 5.12844e-11 -1.79146e-10 
139 1.97259e-10 -4.1746e-11 -3.00101e-10 
143 2.73112e-11 -4.58328e-11 -9.80487e-11 
147 5.18666e-11 1.25645e-10 -1.10401e-10 
151 1.10725e-10 1.46222e-11 -3.38455e-10 
155 0 0 0 
159 7.2764e-11 -2.41667e-10 -3.16634e-10 
163 -5.65615e-11 9.37877e-11 -1.27157e-10 
167 -2.62406e-11 -3.67086e-12 -1.41748e-10 
171 -5.00554e-11 -4.72125e-11 -3.82976e-10 
175 0 0 0 
179 -3.62856e-11 9.31583e-11 -1.18727e-10 
183 -1.62966e-10 4.52105e-11 -2.66555e-10 
187 0 0 0 
191 0 0 0 
4 0 0 0 
8 0 0 0 
12 0 0 0 
16 0 0 0 
20 0 0 0 
24 0 0 0 
28 0 0 0 
32 0 0 0 
36 0 0 0 
40 0 0 0 
44 0 0 0 
48 0 0 0 
52 0 0 0 
56 0 0 0 
60 0 0 0 
64 0 0 0 
68 1.03338e-10 -1.58661e-10 1.52326e-10 
72 0 0 0 
76 0 0 0 
80 0 0 0 
84 3.84424e-11 -1.50296e-10 1.27682e-10 
88 1.60419e-10 -2.96312e-10 7.48366e-11 
92 1.08727e-10 -5.959e-10 -1.83653e-10 
96 5.10994e-11 -1.06332e-10 -1.24339e-10 
100 -2.65355e-11 -1.74091e-10 1.42199e-10 
104 0 0 0 
108 0 0 0 
112 0 0 0 
116 0 0 0 
120 -2.12458e-11 -3.49976e-11 -3.24394e-11 
124 0 0 0 
128 0 0 0 
132 0 0 0 
136 1.46772e-10 7.07252e-11 -2.14664e-10 
140 3.0188e-11 1.61947e-11 -3.03998e-11 
144 0 0 0 
148 8.63435e-11 1.67827e-11 -7.74484e-11 
152 2.5146e-11 3.4706e-11 -1.56663e-10 
156 7.25882e-11 1.17772e-11 -4.7617e-11 
160 0 0 0 
164 0 0 0 
168 0 0 0 
172 -3.93528e-11 5.58591e-12 -6.62967e-11 
176 -2.54207e-11 -4.66102e-11 -1.00639e-10 
180 0 0 0 
184 0 0 0 
188 0 0 0 
192 0 0 0 
ITEM: TIMESTEP
27000
ITEM: NUMBER OF SURFS
192
ITEM: BOX BOUNDS oo rr rr
0 0.0005
0 0.0005
0 0.0005
ITEM: SURFS id f_f_drag_blocks[1] f_f_drag_blocks[2] f_f_drag_blocks[3] 
1 0 0 0 
5 2.33666e-10 2.23024e-10 6.67012e-11 
9 1.39575e-10 3.30187e-11 -2.31346e-11 
13 2.18208e-10 1.83806e-10 -1.98867e-10 
17 5.60683e-11 2.3713e-11 3.23202e-11 
21 5.07916e-10 1.42094e-10 6.82022e-11 
25 5.79919e-10 2.29255e-10 -6.86535e-11 
29 3.78342e-10 9.21657e-11 -1.80929e-10 
33 0 0 0 
37 6.1656e-10 -2.22431e-10 1.31059e-10 
41 1.16365e-09 -4.56554e-10 -2.20262e-10 
45 6.95299e-11 -7.15649e-11 -1.30705e-10 
49 1.51878e-10 -3.86525e-11 8.09313e-11 
53 2.69986e-10 -1.56494e-10 7.44464e-11 
57 9.12331e-11 -5.55756e-11 2.43432e-11 
61 5.49239e-10 -3.50614e-10 -2.2637e-10 
65 1.12155e-10 1.66407e-10 1.38039e-10 
69 0 0 0 
73 0 0 0 
77 1.76131e-10 1.42524e-10 -9.73547e-11 
81 1.00928e-10 2.83565e-10 2.65934e-10 
85 6.45841e-11 3.19987e-11 3.01921e-11 
89 9.24646e-11 3.6439e-10 -1.12699e-10 
93 7.61855e-11 9.95605e-11 -1.00723e-10 
97 -1.82144e-11 1.43147e-10 8.1706e-11 
101 0 0 0 
105 0 0 0 
109 0 0 0 
113 0 0 0 
117 0 0 0 
121 0 0 0 
125 -2.9715e-11 1.76961e-11 -5.14345e-11 
129 6.68796e-11 9.35324e-11 1.13146e-10 
133 0 0 0 
137 0 0 0 
141 0 0 0 
145 2.98921e-11 1.45556e-10 1.53085e-10 
149 6.40658e-11 8.86938e-11 2.86531e-10 
153 4.42195e-11 -3.52224e-11 9.79242e-11 
157 -2.90792e-11 -8.50838e-11 2.21923e-11 
161 1.353e-11 5.63042e-11 1.47287e-10 
165 0 0 0 
169 -3.15617e-11 -4.42761e-11 2.67318e-10 
173 4.90694e-12 -5.68925e-11 4.62802e-11 
177 -7.41449e-11 -5.82032e-12 1.19723e-11 
181 0 0 0 
185 0 0 0 
189 0 0 0 
2 0 0 0 
6 1.72471e-10 1.2969e-10 6.01582e-12 
10 1.65201e-10 1.19871e-10 -3.03436e-11 
14 0 0 0 
18 0 0 0 
22 3.53554e-10 6.09093e-11 1.7256e-11 
26 8.30185e-10 2.04318e-11 -2.23148e-10 
30 1.92702e-10 6.56906e-11 -1.13142e-10 
34 4.76129e-11 -2.37728e-11 5.02585e-11 
38 6.34928e-10 -2.13489e-10 1.85126e-10 
42 2.01457e-10 1.42836e-12 -2.25226e-11 
46 2.28776e-10 -7.86437e-11 -1.3905e-10 
50 8.21399e-11 -1.42777e-10 2.50142e-10 
54 1.82716e-10 -1.82972e-10 1.14013e-10 
58 2.72908e-10 -1.6034e-10 -7.10077e-11 
62 1.1863e-10 -7.67818e-11 -1.19678e-10 
66 0 0 0 
70 5.86762e-11 5.03857e-11 -1.8194e-11 
74 1.23409e-10 1.32487e-10 8.56027e-11 
78 0 0 0 
82 1.25501e-10 2.35474e-10 1.70599e-10 
86 1.79291e-11 3.91653e-10 9.99035e-11 
90 3.25835e-11 1.84735e-10 -1.76417e-11 
94 0 0 0 
98 -3.66862e-11 2.56509e-10 1.76963e-10 
102 4.81273e-12 1.74976e-10 6.60251e-12 
106 0 0 0 
110 -3.60421e-12 2.56959e-11 -9.88688e-11 
114 0 0 0 
118 0 0 0 
122 0 0 0 
126 0 0 0 
130 1.24442e-10 9.83822e-11 3.0198e-10 
134 0 0 0 
138 0 0 0 
142 0 0 0 
146 1.44957e-10 2.41348e-10 3.79366e-10 
150 2.84366e-11 2.53949e-11 1.3375e-10 
154 7.94043e-11 -2.61343e-10 4.58059e-10 
158 0 0 0 
162 -3.00202e-11 6.5144e-11 5.51479e-11 
166 -3.56851e-11 4.44227e-11 1.34491e-10 
170 1.1381e-11 -4.71209e-11 1.50393e-10 
174 0 0 0 
178 -4.19329e-11 6.45148e-11 1.02763e-10 
182 0 0 0 
186 0 0 0 
190 0 0 0 
3 0 0 0 
7 0 0 0 
11 0 0 0 
15 0 0 0 
19 0 0 0 
23 0 0 0 
27 0 0 0 
31 -7.60206e-11 1.32472e-11 -4.35332e-11 
35 0 0 0 
39 0 0 0 
43 0 0 0 
47 0 0 0 
51 0 0 0 
55 0 0 0 
59 0 0 0 
63 0 0 0 
67 4.19735e-11 -6.2636e-11 -1.53602e-12 
71 0 0 0 
75 1.68844e-10 -3.14805e-10 -1.31365e-10 
79 1.83585e-10 -2.02664e-10 -1.91657e-10 
83 7.22524e-11 -6.80364e-11 -1.47109e-11 
87 0 0 0 
91 0 0 0 
95 1.94737e-11 -1.37618e-10 -1.17343e-11 
99 -2.33464e-11 -6.9115e-11 6.86796e-11 
103 -1.67952e-11 -1.74006e-10 1.01389e-11 
107 0 0 0 
111 0 0 0 
115 0 0 0 
119 0 0 0 
123 0 0 0 
127 0 0 0 
131 7.29792e-11 6.40839e-11 -7.90577e-11 
135 7.76657e-11 -4.36867e-11 -1.76907e-10 
139 0 0 0 
143 0 0 0 
147 9.51836e-11 1.74124e-10 -2.28957e-10 
151 4.53248e-11 1.99803e-11 -1.15145e-10 
155 4.49861e-11 -1.16599e-11 -1.53401e-10 
159 0 0 0 
163 0 0 0 
167 -5.557e-11 1.85009e-10 -4.0024e-10 
171 0 0 0 
175 -6.87315e-11 -9.53069e-11 -1.83868e-10 
179 -4.5563e-11 2.56254e-11 -5.32061e-11 
183 -6.11826e-11 4.5444e-11 -1.06925e-10 
187 0 0 0 
191 0 0 0 
4 0 0 0 
8 -6.09894e-11 4.38363e-11 2.50103e-11 
12 0 0 0 
16 0 0 0 
20 0 0 0 
24 0 0 0 
28 0 0 0 
32 0 0 0 
36 -6.13998e-11 -3.73962e-14 4.82128e-11 
40 0 0 0 
44 0 0 0 
48 0 0 0 
52 -2.29135e-11 -1.20717e-11 4.67558e-12 
56 0 0 0 
60 0 0 0 
64 0 0 0 
68 0 0 0 
72 7.40938e-11 -8.99186e-11 -9.72101e-13 
76 2.46184e-10 -3.21099e-10 -7.12149e-11 
80 3.24262e-11 -1.78564e-10 -9.21124e-11 
84 0 0 0 
88 4.48925e-11 -2.60473e-10 2.51382e-12 
92 0 0 0 
96 0 0 0 
100 -8.72193e-12 -1.9325e-10 1.95579e-10 
104 -8.18731e-11 -1.42668e-10 7.65707e-11 
108 2.7091e-12 -2.14577e-10 -7.21424e-11 
112 -6.0443e-11 -9.73253e-11 -8.5957e-12 
116 0 0 0 
120 0 0 0 
124 0 0 0 
128 0 0 0 
132 0 0 0 
136 6.85872e-11 5.5653e-12 -1.2412e-11 
140 1.23477e-10 5.57157e-12 -1.39458e-10 
144 5.93935e-11 -7.17757e-11 -3.05253e-11 
148 0 0 0 
152 6.21028e-11 4.5086e-12 -2.41551e-10 
156 0 0 0 
160 0 0 0 
164 -2.65544e-11 8.21653e-11 -7.87393e-11 
168 -4.01e-11 2.57809e-11 -1.14102e-10 
172 -3.59034e-11 -5.22332e-11 -3.07341e-10 
176 1.8243e-11 -9.68204e-11 -1.76338e-11 
180 0 0 0 
184 -1.63789e-10 7.33488e-11 -3.11616e-10 
188 2.82693e-12 -5.94057e-11 -7.54155e-11 
192 -8.61888e-11 -1.34372e-10 -2.03757e-10 
ITEM: TIMESTEP
28000
ITEM: NUMBER OF SURFS
192
ITEM: BOX BOUNDS oo rr rr
0 0.0005
0 0.0005
0 0.0005
ITEM: SURFS id f_f_drag_blocks[1] f_f_drag_blocks[2] f_f_drag_blocks[3] 
1 5.36268e-11 -1.83944e-12 1.04025e-10 
5 1.2105e-10 7.49383e-11 6.24387e-11 
9 2.16105e-10 1.43793e-10 -1.165e-10 
13 2.41457e-10 2.35654e-10 -2.17466e-10 
17 2.15794e-10 -5.4505e-11 2.13547e-10 
21 1.20543e-10 3.42171e-11 6.21585e-11 
25 1.30045e-09 4.21428e-10 -2.41587e-10 
29 1.07183e-10 4.16097e-11 -1.39734e-10 
33 9.78111e-11 6.27936e-12 5.47188e-11 
37 2.28173e-10 -7.20392e-11 9.38696e-11 
41 2.02297e-10 -1.44425e-11 -2.69467e-11 
45 6.16443e-10 -2.46813e-10 -2.66308e-10 
49 1.32696e-10 -6.01274e-11 1.52392e-11 
53 0 0 0 
57 3.99116e-10 -3.565e-10 -1.51042e-10 
61 1.5246e-10 -9.66462e-11 -1.23758e-10 
65 0 0 0 
69 3.17771e-10 6.18164e-10 1.25844e-10 
73 0 0 0 
77 1.03274e-10 1.38153e-10 -1.10953e-10 
81 0 0 0 
85 3.21644e-11 8.41148e-11 2.21479e-11 
89 0 0 0 
93 0 0 0 
97 0 0 0 
101 -2.5506e-11 4.61104e-11 3.14362e-11 
105 4.76126e-11 6.93284e-11 5.44599e-11 
109 0 0 0 
113 0 0 0 
117 0 0 0 
121 0 0 0 
125 -1.70928e-10 2.47393e-10 -8.8333e-11 
129 5.42794e-11 1.39342e-10 1.53774e-10 
133 0 0 0 
137 3.20673e-10 -1.95857e-10 4.14436e-10 
141 1.87229e-10 -1.82197e-10 2.78949e-10 
145 0 0 0 
149 5.14001e-11 -4.10422e-11 5.71009e-11 
153 5.59131e-11 -8.83046e-11 1.32946e-10 
157 4.41147e-12 -6.77829e-11 8.28832e-11 
161 -1.74199e-11 6.61232e-11 1.5691e-10 
165 -5.70259e-11 -8.2898e-11 8.13631e-11 
169 0 0 0 
173 0 0 0 
177 0 0 0 
181 0 0 0 
185 0 0 0 
189 0 0 0 
2 3.69863e-11 7.20723e-11 8.16084e-11 
6 1.69963e-10 1.85227e-10 -1.64039e-11 
10 7.42906e-11 5.42752e-11 -5.50358e-11 
14 0 0 0 
18 0 0 0 
22 7.38941e-10 1.96087e-10 1.55522e-10 
26 6.47662e-10 1.59557e-10 -1.36565e-10 
30 7.57625e-10 6.89675e-11 -4.43668e-10 
34 0 0 0 
38 1.82666e-10 -3.70743e-11 5.40644e-11 
42 1.58531e-10 -3.57539e-11 -3.1459e-11 
46 3.61431e-10 -4.90287e-11 -1.91886e-10 
50 1.67595e-10 -2.05828e-10 2.67871e-10 
54 8.89334e-11 -1.02237e-10 6.68997e-12 
58 5.53953e-10 -2.70507e-10 -1.1265e-10 
62 1.75624e-10 -7.49805e-11 -8.67338e-11 
66 0 0 0 
70 4.02059e-11 5.1167e-11 -1.81099e-11 
74 0 0 0 
78 0 0 0 
82 0 0 0 
86 1.12497e-11 1.2769e-10 -1.58069e-11 
90 -6.81719e-12 4.62404e-11 -4.32822e-11 
94 0 0 0 
98 -6.53741e-11 1.20514e-10 7.62305e-11 
102 0 0 0 
106 0 0 0 
110 0 0 0 
114 0 0 0 
118 0 0 0 
122 0 0 0 
126 0 0 0 
130 1.9822e-10 1.68935e-10 1.72678e-10 
134 2.77397e-10 9.42063e-11 3.47131e-10 
138 1.6417e-10 -2.27882e-11 2.51914e-10 
142 0 0 0 
146 0 0 0 
150 2.25483e-10 1.0089e-10 3.96336e-10 
154 7.02156e-11 -6.77924e-11 1.76153e-10 
158 4.23082e-11 -7.08318e-11 1.32046e-10 
162 6.5166e-11 5.81627e-11 1.92e-11 
166 -4.51621e-12 4.17254e-11 2.46234e-10 
170 -1.30229e-11 4.46405e-11 1.07715e-10 
174 0 0 0 
178 0 0 0 
182 -5.01248e-11 8.30064e-11 2.02304e-10 
186 0 0 0 
190 0 0 0 
3 0 0 0 
7 0 0 0 
11 0 0 0 
15 0 0 0 
19 0 0 0 
23 0 0 0 
27 -1.63723e-10 2.71176e-11 -5.11238e-11 
31 -7.82914e-11 2.17302e-11 -2.34004e-11 
35 -5.64715e-11 -7.39133e-12 7.57535e-11 
39 0 0 0 
43 0 0 0 
47 0 0 0 
51 0 0 0 
55 0 0 0 
59 0 0 0 
63 0 0 0 
67 0 0 0 
71 3.94359e-11 -4.64934e-11 -7.14152e-12 
75 4.42695e-10 -5.29534e-10 -1.21937e-10 
79 9.55617e-11 -1.41425e-10 -1.24602e-10 
83 0 0 0 
87 1.3681e-10 -3.19568e-10 8.42863e-11 
91 1.08932e-10 -1.56977e-10 -1.40475e-11 
95 0 0 0 
99 2.25145e-11 -4.3026e-11 1.94556e-11 
103 -5.82457e-12 -8.28589e-11 2.6732e-11 
107 -9.82437e-11 -2.58797e-10 -4.68037e-11 
111 -4.66246e-11 -2.64132e-10 -1.61421e-10 
115 0 0 0 
119 0 0 0 
123 0 0 0 
127 3.85888e-12 -6.36348e-11 -1.02368e-11 
131 0 0 0 
135 9.09894e-11 4.64006e-11 -1.66751e-10 
139 0 0 0 
143 3.56093e-11 -8.31757e-12 -4.42854e-11 
147 4.9717e-11 4.40758e-11 1.31689e-11 
151 0 0 0 
155 2.09847e-11 -6.82929e-11 -2.08297e-10 
159 1.21383e-10 -9.4404e-11 -1.39439e-10 
163 -3.43648e-11 4.68054e-11 -1.88464e-10 
167 0 0 0 
171 0 0 0 
175 0 0 0 
179 9.12314e-12 3.57911e-11 -5.25955e-11 
183 -4.80415e-11 1.36857e-11 -1.23127e-10 
187 -3.47243e-11 7.02538e-12 -5.53104e-11 
191 0 0 0 
4 0 0 0 
8 0 0 0 
12 0 0 0 
16 0 0 0 
20 0 0 0 
24 0 0 0 
28 0 0 0 
32 0 0 0 
36 0 0 0 
40 0 0 0 
44 -9.79467e-11 -8.76283e-11 2.92922e-12 
48 0 0 0 
52 0 0 0 
56 0 0 0 
60 0 0 0 
64 0 0 0 
68 3.07638e-10 -2.5924e-10 1.8485e-10 
72 3.75875e-11 -6.32238e-11 7.60805e-11 
76 2.52136e-10 -4.18305e-10 -1.13741e-10 
80 1.40453e-10 -1.31151e-10 -8.66002e-12 
84 4.37458e-11 -1.32284e-10 1.06782e-10 
88 2.87933e-11 -1.54729e-10 1.52272e-11 
92 1.15476e-10 -5.12736e-10 -1.33364e-10 
96 0 0 0 
100 -3.60608e-11 -8.64271e-11 -8.95293e-12 
104 -1.45682e-10 -5.48516e-10 1.49519e-10 
108 -5.2322e-11 -5.54072e-11 -2.12883e-11 
112 -5.56525e-11 -8.67521e-11 -1.51836e-10 
116 0 0 0 
120 -4.40524e-11 -6.07544e-11 -4.05511e-11 
124 0 0 0 
128 0 0 0 
132 7.66665e-11 6.1567e-11 -1.55585e-10 
136 3.37027e-10 7.55545e-11 -3.84774e-10 
140 0 0 0 
144 0 0 0 
148 0 0 0 
152 -1.52954e-11 3.15501e-11 -1.0835e-10 
156 1.08956e-10 -1.02673e-10 -2.98925e-10 
160 0 0 0 
164 -2.2425e-11 5.54898e-11 -2.47948e-11 
168 -1.24058e-11 -2.03202e-11 -7.64648e-11 
172 4.13319e-12 -1.1716e-12 -2.28106e-10 
176 0 0 0 
180 -8.17471e-11 6.54018e-11 -8.62946e-11 
184 0 0 0 
188 0 0 0 
192 0 0 0 
ITEM: TIMESTEP
29000
ITEM: NUMBER OF SURFS
192
ITEM: BOX BOUNDS oo rr rr
0 0.0005
0 0.0005
0 0.0005
ITEM: SURFS id f_f_drag_blocks[1] f_f_drag_blocks[2] f_f_drag_blocks[3] 
1 1.01388e-10 4.2589e-11 1.19146e-10 
5 5.12283e-10 3.36525e-10 1.20689e-10 
9 9.32676e-11 7.67946e-11 -3.98577e-11 
13 0 0 0 
17 9.58198e-11 3.96881e-11 4.49085e-11 
21 2.06947e-10 4.74758e-11 7.11969e-11 
25 7.35953e-10 1.69861e-10 -2.12648e-10 
29 4.02925e-10 9.50065e-11 -3.23798e-10 
33 3.0833e-10 -1.70256e-11 2.21623e-10 
37 2.80294e-10 -5.4723e-11 8.08152e-11 
41 9.02359e-10 -1.87816e-10 -1.92175e-10 
45 1.66071e-10 -5.66753e-11 -1.56427e-10 
49 1.32615e-10 -1.44819e-10 8.58817e-11 
53 3.24647e-10 -8.62126e-11 7.17062e-11 
57 0 0 0 
61 7.05774e-11 -8.25541e-11 -9.44398e-11 
65 1.36391e-10 2.36687e-10 1.65974e-10 
69 2.0178e-10 2.82826e-10 3.04678e-11 
73 3.69355e-10 4.57389e-10 -1.3335e-10 
77 1.57341e-10 1.54245e-10 -9.92883e-11 
81 7.82205e-12 3.7439e-11 1.29234e-11 
85 0 0 0 
89 1.08582e-10 4.11617e-10 -1.93471e-10 
93 1.21444e-11 1.74811e-10 -1.92404e-10 
97 -3.86952e-11 1.71592e-10 1.35424e-10 
101 2.04467e-12 2.52101e-10 4.33483e-11 
105 0 0 0 
109 0 0 0 
113 0 0 0 
117 0 0 0 
121 -2.75189e-11 3.44423e-11 -2.60585e-11 
125 -1.28043e-11 9.91323e-11 -5.27202e-11 
129 6.5435e-11 1.28169e-10 1.34995e-10 
133 0 0 0 
137 2.49143e-10 -3.84409e-11 3.17288e-10 
141 1.91048e-10 -3.26241e-10 2.50893e-10 
145 -1.31844e-11 9.13684e-11 2.8562e-11 
149 5.84712e-11 7.73917e-11 3.15514e-10 
153 1.12378e-11 -5.60011e-11 1.49267e-10 
157 0 0 0 
161 0 0 0 
165 0 0 0 
169 -1.89032e-11 -5.2813e-11 3.29132e-11 
173 -2.63364e-11 -8.33998e-11 1.95997e-10 
177 0 0 0 
181 0 0 0 
185 0 0 0 
189 -2.95664e-11 -4.35946e-11 6.75308e-11 
2 0 0 0 
6 3.27513e-10 1.9139e-10 1.95672e-11 
10 6.32242e-10 4.35195e-10 -6.82932e-11 
14 2.21321e-10 1.43186e-10 -1.81759e-10 
18 1.35182e-10 4.79474e-11 5.55827e-11 
22 6.45841e-10 6.99661e-11 1.08088e-10 
26 2.99871e-10 9.49908e-11 -9.1571e-11 
30 1.22449e-10 -3.45265e-12 -7.98041e-11 
34 8.83472e-10 -1.22997e-10 4.70937e-10 
38 2.84667e-10 -8.02183e-11 4.12648e-11 
42 3.95366e-10 -7.13707e-11 -3.48213e-11 
46 1.69787e-10 -6.71344e-11 -1.58412e-10 
50 2.12361e-10 -3.84353e-10 2.38299e-10 
54 4.08114e-10 -2.82609e-10 2.92718e-11 
58 3.48435e-10 -2.16186e-10 -5.81525e-11 
62 0 0 0 
66 5.0233e-11 1.00314e-10 5.13747e-11 
70 2.12102e-10 4.19442e-10 9.60271e-11 
74 9.6601e-11 2.08911e-10 -1.39158e-11 
78 0 0 0 
82 5.67507e-12 2.74428e-10 1.94362e-10 
86 2.8358e-11 1.70456e-10 7.31934e-11 
90 1.45512e-10 3.57087e-10 -5.00677e-11 
94 1.06842e-11 2.37966e-10 -2.02604e-10 
98 0 0 0 
102 0 0 0 
106 0 0 0 
110 0 0 0 
114 0 0 0 
118 -9.74009e-11 1.00141e-11 2.79483e-11 
122 0 0 0 
126 0 0 0 
130 0 0 0 
134 1.78658e-10 6.25443e-11 1.25071e-10 
138 0 0 0 
142 1.93839e-10 -2.75523e-10 3.38056e-10 
146 4.22547e-11 3.86719e-11 6.53477e-11 
150 6.23339e-11 6.17051e-11 7.43436e-11 
154 2.63413e-10 -8.14069e-11 6.09596e-10 
158 0 0 0 
162 0 0 0 
166 6.77107e-13 9.15328e-13 2.7416e-11 
170 -4.73221e-11 -5.41063e-11 2.35657e-10 
174 7.1455e-12 -4.16548e-11 1.31106e-10 
178 0 0 0 
182 0 0 0 
186 0 0 0 
190 0 0 0 
3 0 0 0 
7 0 0 0 
11 0 0 0 
15 0 0 0 
19 0 0 0 
23 0 0 0 
27 0 0 0 
31 0 0 0 
35 -2.73505e-11 -4.03668e-11 2.23541e-11 
39 0 0 0 
43 0 0 0 
47 0 0 0 
51 0 0 0 
55 0 0 0 
59 -1.33296e-10 -7.45888e-11 -4.56585e-11 
63 0 0 0 
67 1.20676e-10 -9.29377e-11 1.03594e-10 
71 2.05546e-10 -2.53407e-10 8.19699e-11 
75 6.97427e-11 -1.12314e-10 -2.38515e-11 
79 3.34266e-11 -7.57937e-11 -7.17316e-11 
83 2.06434e-10 -3.95427e-10 3.54284e-10 
87 0 0 0 
91 1.16122e-10 -1.78337e-10 -7.19646e-11 
95 -9.48703e-12 -1.41042e-10 -1.65403e-10 
99 0 0 0 
103 -1.84631e-10 -3.89859e-10 9.40317e-11 
107 0 0 0 
111 5.6951e-12 -1.8585e-11 -4.44281e-11 
115 0 0 0 
119 -1.04928e-10 -3.68275e-11 -2.13406e-11 
123 0 0 0 
127 0 0 0 
131 0 0 0 
135 0 0 0 
139 0 0 0 
143 5.48512e-11 -7.05877e-11 -3.36992e-11 
147 3.92978e-11 5.22878e-11 -1.31058e-10 
151 0 0 0 
155 1.21134e-11 -9.8244e-12 -6.33548e-11 
159 0 0 0 
163 0 0 0 
167 -4.52968e-11 7.38132e-12 -6.61209e-11 
171 -1.44431e-11 2.35055e-11 -9.62606e-11 
175 0 0 0 
179 0 0 0 
183 0 0 0 
187 -1.34838e-10 -8.57483e-11 -1.3987e-10 
191 0 0 0 
4 -9.29102e-11 1.31342e-10 8.43949e-11 
8 0 0 0 
12 0 0 0 
16 -7.61581e-11 1.37696e-10 -3.59062e-11 
20 0 0 0 
24 0 0 0 
28 0 0 0 
32 0 0 0 
36 0 0 0 
40 0 0 0 
44 0 0 0 
48 0 0 0 
52 0 0 0 
56 0 0 0 
60 0 0 0 
64 0 0 0 
68 0 0 0 
72 4.15494e-11 -1.19482e-10 4.43145e-11 
76 1.06097e-10 -1.5136e-10 -4.97182e-11 
80 0 0 0 
84 -2.3836e-11 -1.70664e-10 4.97562e-11 
88 0 0 0 
92 1.94132e-10 -5.79994e-10 -1.66398e-10 
96 6.48373e-12 -1.11102e-10 -1.12248e-10 
100 -6.67875e-11 -1.20677e-12 2.6898e-11 
104 -2.17497e-12 -3.2104e-10 9.39473e-11 
108 -4.31159e-11 -9.03768e-12 -1.58794e-11 
112 0 0 0 
116 0 0 0 
120 0 0 0 
124 0 0 0 
128 0 0 0 
132 6.89985e-11 1.20294e-10 -1.5057e-10 
136 2.1237e-10 9.92665e-11 -2.53151e-10 
140 0 0 0 
144 1.60907e-10 -1.43688e-10 -1.94196e-10 
148 1.01717e-10 1.08472e-10 -1.26346e-10 
152 7.98073e-11 3.65063e-11 -2.6046e-10 
156 4.56571e-11 -1.46817e-12 -1.2969e-10 
160 0 0 0 
164 9.15071e-12 1.18306e-10 -9.86598e-11 
168 1.03663e-11 -4.83057e-12 -3.25484e-10 
172 0 0 0 
176 0 0 0 
180 0 0 0 
184 0 0 0 
188 0 0 0 
192 0 0 0 
ITEM: TIMESTEP
30000
ITEM: NUMBER OF SURFS
192
ITEM: BOX BOUNDS oo rr rr
0 0.0005
0 0.0005
0 0.0005
ITEM: SURFS id f_f_drag_blocks[1] f_f_drag_blocks[2] f_f_drag_blocks[3] 
1 0 0 0 
5 2.97719e-10 2.20138e-10 8.58418e-12 
9 4.20836e-10 2.45117e-10 -1.11144e-10 
13 3.37793e-10 1.81147e-10 -1.92332e-10 
17 0 0 0 
21 1.00181e-09 3.13778e-10 1.04392e-10 
25 9.55937e-10 3.40873e-11 -3.03151e-10 
29 4.92826e-10 1.33081e-10 -4.69997e-10 
33 3.62827e-10 -1.60029e-10 2.85628e-10 
37 9.92554e-11 -6.35434e-11 6.82508e-11 
41 7.34342e-10 -1.23935e-10 -1.19898e-10 
45 6.77261e-10 -9.95719e-11 -4.15778e-10 
49 8.27489e-11 -9.94673e-11 -8.67679e-12 
53 0 0 0 
57 0 0 0 
61 2.77434e-10 -3.1403e-10 -1.9978e-10 
65 0 0 0 
69 8.97695e-11 8.32794e-11 1.37029e-11 
73 9.56471e-11 1.8736e-10 -9.30238e-12 
77 0 0 0 
81 0 0 0 
85 2.96829e-11 1.13092e-10 4.71981e-11 
89 9.2943e-11 3.4502e-10 -3.10043e-11 
93 2.25698e-11 2.03729e-10 -1.56035e-10 
97 0 0 0 
101 1.40161e-11 2.32399e-10 -4.27291e-11 
105 0 0 0 
109 3.80417e-11 1.98004e-10 -1.65428e-10 
113 0 0 0 
117 -1.76106e-10 2.30358e-10 8.06614e-11 
121 -1.4497e-11 6.13581e-11 2.10739e-11 
125 0 0 0 
129 0 0 0 
133 1.37398e-11 3.46607e-11 1.04036e-10 
137 2.56515e-10 -2.44916e-11 2.23477e-10 
141 7.01565e-11 -1.66353e-10 9.75548e-11 
145 1.43567e-10 2.04531e-10 3.34465e-10 
149 2.48315e-10 1.44009e-10 5.28246e-10 
153 0 0 0 
157 0 0 0 
161 0 0 0 
165 -6.53322e-12 7.85783e-11 4.46843e-10 
169 -9.65707e-12 -2.43473e-11 1.43203e-10 
173 0 0 0 
177 0 0 0 
181 -3.91015e-11 -1.96683e-11 5.30895e-11 
185 0 0 0 
189 -8.13805e-11 -3.94339e-11 1.52002e-11 
2 6.53817e-11 -5.42377e-12 6.98597e-12 
6 5.13682e-10 3.59229e-10 1.55009e-10 
10 1.10936e-10 5.43364e-11 1.9945e-11 
14 0 0 0 
18 1.02275e-10 -4.41608e-12 2.03635e-11 
22 5.69321e-10 1.2151e-10 7.35186e-11 
26 6.58575e-10 1.1314e-10 -9.42732e-11 
30 4.27265e-10 1.86361e-10 -3.03701e-10 
34 1.58611e-10 -8.53187e-11 1.25161e-10 
38 7.22812e-10 -1.64659e-10 1.09777e-10 
42 4.14431e-10 -1.01298e-10 -1.3779e-10 
46 1.9839e-10 -5.2364e-11 -1.12072e-10 
50 1.71578e-10 -1.70208e-10 1.64343e-10 
54 0 0 0 
58 0 0 0 
62 0 0 0 
66 3.26864e-10 3.28283e-10 2.01069e-10 
70 1.67809e-10 1.53277e-10 9.57387e-11 
74 3.06138e-10 3.84191e-10 -1.17564e-10 
78 0 0 0 
82 0 0 0 
86 2.41241e-11 2.44374e-10 6.98152e-12 
90 7.60296e-11 2.4605e-10 -7.71888e-11 
94 0 0 0 
98 -1.58511e-11 6.03305e-11 9.59908e-11 
102 8.91314e-13 2.7921e-10 6.41238e-11 
106 -4.44944e-11 1.49354e-10 -5.09815e-11 
110 0 0 0 
114 0 0 0 
118 6.00222e-12 7.73673e-11 1.66089e-11 
122 0 0 0 
126 0 0 0 
130 0 0 0 
134 2.85601e-10 1.792e-10 3.97828e-10 
138 3.93697e-11 1.40935e-11 4.79404e-11 
142 5.85474e-11 -5.70653e-11 1.47811e-10 
146 0 0 0 
150 1.84949e-10 5.92246e-11 3.14043e-10 
154 1.80774e-11 -1.20515e-10 2.19692e-10 
158 0 0 0 
162 0 0 0 
166 0 0 0 
170 0 0 0 
174 0 0 0 
178 0 0 0 
182 0 0 0 
186 0 0 0 
190 0 0 0 
3 0 0 0 
7 -1.18597e-10 1.10654e-11 1.30524e-11 
11 0 0 0 
15 0 0 0 
19 0 0 0 
23 -6.89836e-11 -1.73454e-11 1.40789e-11 
27 0 0 0 
31 0 0 0 
35 0 0 0 
39 0 0 0 
43 0 0 0 
47 0 0 0 
51 -1.55265e-10 -5.15894e-11 4.83657e-11 
55 0 0 0 
59 0 0 0 
63 0 0 0 
67 9.73639e-11 -7.26373e-11 1.23369e-11 
71 1.72258e-10 -2.40268e-10 8.24123e-11 
75 4.16026e-10 -3.99726e-10 -1.24766e-10 
79 1.1303e-10 -1.05427e-10 -5.27004e-11 
83 0 0 0 
87 1.8381e-10 -7.38443e-10 1.55348e-10 
91 1.13416e-10 -5.67239e-10 -2.08781e-10 
95 0 0 0 
99 3.09413e-11 -1.66462e-11 4.06823e-11 
103 0 0 0 
107 -1.95028e-11 -1.51738e-10 1.48834e-11 
111 0 0 0 
115 0 0 0 
119 0 0 0 
123 0 0 0 
127 -4.62762e-11 -1.05724e-10 -4.60094e-11 
131 3.14343e-11 9.08456e-11 -1.45599e-10 
135 0 0 0 
139 0 0 0 
143 6.48104e-11 -5.79815e-11 -4.52082e-11 
147 0 0 0 
151 7.90191e-11 5.21729e-11 -2.90768e-10 
155 1.20313e-10 -4.84035e-11 -3.21089e-10 
159 1.62849e-10 -2.6865e-10 -3.28982e-10 
163 0 0 0 
167 0 0 0 
171 -9.10722e-11 -1.06511e-10 -3.47761e-10 
175 0 0 0 
179 0 0 0 
183 0 0 0 
187 0 0 0 
191 0 0 0 
4 0 0 0 
8 0 0 0 
12 0 0 0 
16 0 0 0 
20 0 0 0 
24 0 0 0 
28 0 0 0 
32 0 0 0 
36 0 0 0 
40 0 0 0 
44 0 0 0 
48 0 0 0 
52 0 0 0 
56 0 0 0 
60 0 0 0 
64 0 0 0 
68 0 0 0 
72 0 0 0 
76 1.4402e-10 -1.97151e-10 -2.23659e-11 
80 1.32235e-10 -1.69168e-10 -9.12249e-11 
84 4.79612e-12 -1.71245e-10 1.26173e-10 
88 6.75918e-11 -1.40475e-10 5.00662e-11 
92 1.60692e-10 -2.6333e-10 -5.50171e-11 
96 5.88912e-11 -2.18428e-10 -1.18179e-10 
100 0 0 0 
104 0 0 0 
108 0 0 0 
112 0 0 0 
116 -5.83484e-11 -6.85223e-11 9.18682e-11 
120 0 0 0 
124 0 0 0 
128 0 0 0 
132 2.39911e-10 5.02407e-12 -1.69552e-10 
136 2.18975e-10 9.3182e-11 -2.66208e-10 
140 6.30412e-11 4.87615e-12 -1.45327e-10 
144 9.83492e-11 -1.0138e-10 -6.75858e-11 
148 0 0 0 
152 0 0 0 
156 1.12864e-10 2.46087e-11 -2.51644e-10 
160 0 0 0 
164 -5.47006e-11 5.10057e-11 -2.11482e-10 
168 0 0 0 
172 0 0 0 
176 0 0 0 
180 0 0 0 
184 0 0 0 
188 -3.09454e-11 -3.11302e-11 -5.48784e-11 
192 0 0 0 
ITEM: TIMESTEP
31000
ITEM: NUMBER OF SURFS
192
ITEM: BOX BOUNDS oo rr rr
0 0.0005
0 0.0005
0 0.0005
ITEM: SURFS id f_f_drag_blocks[1] f_f_drag_blocks[2] f_f_drag_blocks[3] 
1 5.73692e-11 -1.75874e-12 5.44994e-11 
5 4.63282e-10 3.28916e-10 1.65184e-10 
9 5.32453e-10 3.96654e-10 -1.46121e-10 
13 2.4176e-10 2.34811e-10 -3.26124e-10 
17 3.22635e-10 3.02883e-12 2.10181e-10 
21 9.2347e-10 2.40644e-10 2.54398e-10 
25 3.49056e-10 5.95241e-11 -4.75765e-11 
29 0 0 0 
33 8.87355e-11 -7.19446e-12 1.03754e-10 
37 3.43856e-10 -1.2907e-10 8.61221e-11 
41 4.13204e-10 -5.51042e-11 -1.07921e-10 
45 3.76852e-10 -3.16827e-11 -2.45256e-10 
49 0 0 0 
53 0 0 0 
57 4.97232e-10 -2.70373e-10 -1.46587e-10 
61 2.16373e-10 -8.79657e-11 -3.51648e-11 
65 0 0 0 
69 2.34461e-10 3.69227e-10 1.42327e-10 
73 3.74222e-10 3.83905e-10 -1.70443e-10 
77 1.05313e-10 5.11217e-11 -9.5408e-11 
81 0 0 0 
85 0 0 0 
89 2.86573e-11 1.29556e-10 2.92794e-11 
93 0 0 0 
97 1.18441e-11 1.77882e-10 1.16478e-10 
101 0 0 0 
105 5.62383e-11 1.81695e-10 9.60184e-12 
109 0 0 0 
113 0 0 0 
117 0 0 0 
121 0 0 0 
125 -1.24818e-11 3.82862e-11 1.9104e-11 
129 0 0 0 
133 2.83804e-11 4.38557e-11 4.97132e-11 
137 2.06808e-10 -6.21082e-11 3.59872e-10 
141 1.03085e-10 -1.65933e-11 7.56155e-11 
145 0 0 0 
149 0 0 0 
153 1.69575e-11 3.06261e-11 5.55928e-11 
157 7.99934e-11 -4.93659e-11 1.33302e-10 
161 -3.40116e-11 1.07678e-10 8.43049e-11 
165 0 0 0 
169 0 0 0 
173 0 0 0 
177 0 0 0 
181 0 0 0 
185 -2.60626e-11 -2.15412e-11 6.78623e-11 
189 0 0 0 
2 2.80748e-10 1.79762e-10 1.56104e-10 
6 1.70914e-10 1.44514e-10 1.38669e-11 
10 5.227e-10 3.56845e-10 -8.72959e-11 
14 2.29659e-10 1.48796e-10 -1.42742e-10 
18 2.958e-10 1.78844e-11 1.30585e-10 
22 5.1651e-10 2.52226e-11 1.64517e-10 
26 7.87116e-10 2.34981e-10 -1.4148e-10 
30 1.16228e-10 5.5428e-11 -5.11868e-11 
34 0 0 0 
38 9.86456e-10 -3.17925e-10 2.157e-10 
42 7.65289e-10 -6.95659e-11 -4.73626e-11 
46 2.64606e-10 -2.02305e-11 -1.30308e-10 
50 1.18447e-10 -9.2648e-11 1.25257e-10 
54 1.1256e-10 -9.14279e-11 -1.37971e-11 