ITEM: TIMESTEP
25000
ITEM: NUMBER OF SURFS
192
ITEM: BOX BOUNDS oo rr rr
0 0.0005
0 0.0005
0 0.0005
ITEM: SURFS id f_f_drag_blocks[1] f_f_drag_blocks[2] f_f_drag_blocks[3] 
1 0 0 0 
5 0 0 0 
9 0 0 0 
13 0 0 0 
17 0 0 0 
21 0 0 0 
25 0 0 0 
29 0 0 0 
33 0 0 0 
37 0 0 0 
41 0 0 0 
45 0 0 0 
49 0 0 0 
53 0 0 0 
57 0 0 0 
61 0 0 0 
65 0 0 0 
69 0 0 0 
73 0 0 0 
77 0 0 0 
81 0 0 0 
85 0 0 0 
89 0 0 0 
93 0 0 0 
97 0 0 0 
101 0 0 0 
105 0 0 0 
109 0 0 0 
113 0 0 0 
117 0 0 0 
121 0 0 0 
125 0 0 0 
129 0 0 0 
133 0 0 0 
137 0 0 0 
141 0 0 0 
145 0 0 0 
149 0 0 0 
153 0 0 0 
157 0 0 0 
161 0 0 0 
165 0 0 0 
169 0 0 0 
173 0 0 0 
177 0 0 0 
181 0 0 0 
185 0 0 0 
189 0 0 0 
2 0 0 0 
6 0 0 0 
10 0 0 0 
14 0 0 0 
18 0 0 0 
22 0 0 0 
26 0 0 0 
30 0 0 0 
34 0 0 0 
38 0 0 0 
42 0 0 0 
46 0 0 0 
50 0 0 0 
54 0 0 0 
58 0 0 0 
62 0 0 0 
66 0 0 0 
70 0 0 0 
74 0 0 0 
78 0 0 0 
82 0 0 0 
86 0 0 0 
90 0 0 0 
94 0 0 0 
98 0 0 0 
102 0 0 0 
106 0 0 0 
110 0 0 0 
114 0 0 0 
118 0 0 0 
122 0 0 0 
126 0 0 0 
130 0 0 0 
134 0 0 0 
138 0 0 0 
142 0 0 0 
146 0 0 0 
150 0 0 0 
154 0 0 0 
158 0 0 0 
162 0 0 0 
166 0 0 0 
170 0 0 0 
174 0 0 0 
178 0 0 0 
182 0 0 0 
186 0 0 0 
190 0 0 0 
3 0 0 0 
7 0 0 0 
11 0 0 0 
15 0 0 0 
19 0 0 0 
23 0 0 0 
27 0 0 0 
31 0 0 0 
35 0 0 0 
39 0 0 0 
43 0 0 0 
47 0 0 0 
51 0 0 0 
55 0 0 0 
59 0 0 0 
63 0 0 0 
67 0 0 0 
71 0 0 0 
75 0 0 0 
79 0 0 0 
83 0 0 0 
87 0 0 0 
91 0 0 0 
95 0 0 0 
99 0 0 0 
103 0 0 0 
107 0 0 0 
111 0 0 0 
115 0 0 0 
119 0 0 0 
123 0 0 0 
127 0 0 0 
131 0 0 0 
135 0 0 0 
139 0 0 0 
143 0 0 0 
147 0 0 0 
151 0 0 0 
155 0 0 0 
159 0 0 0 
163 0 0 0 
167 0 0 0 
171 0 0 0 
175 0 0 0 
179 0 0 0 
183 0 0 0 
187 0 0 0 
191 0 0 0 
4 0 0 0 
8 0 0 0 
12 0 0 0 
16 0 0 0 
20 0 0 0 
24 0 0 0 
28 0 0 0 
32 0 0 0 
36 0 0 0 
40 0 0 0 
44 0 0 0 
48 0 0 0 
52 0 0 0 
56 0 0 0 
60 0 0 0 
64 0 0 0 
68 0 0 0 
72 0 0 0 
76 0 0 0 
80 0 0 0 
84 0 0 0 
88 0 0 0 
92 0 0 0 
96 0 0 0 
100 0 0 0 
104 0 0 0 
108 0 0 0 
112 0 0 0 
116 0 0 0 
120 0 0 0 
124 0 0 0 
128 0 0 0 
132 0 0 0 
136 0 0 0 
140 0 0 0 
144 0 0 0 
148 0 0 0 
152 0 0 0 
156 0 0 0 
160 0 0 0 
164 0 0 0 
168 0 0 0 
172 0 0 0 
176 0 0 0 
180 0 0 0 
184 0 0 0 
188 0 0 0 
192 0 0 0 
ITEM: TIMESTEP
26000
ITEM: NUMBER OF SURFS
192
ITEM: BOX BOUNDS oo rr rr
0 0.0005
0 0.0005
0 0.0005
ITEM: SURFS id f_f_drag_blocks[1] f_f_drag_blocks[2] f_f_drag_blocks[3] 
1 1.32673e-10 8.42043e-11 8.27657e-11 
5 2.19096e-10 1.37965e-10 6.59423e-11 
9 2.61815e-10 1.67008e-10 -6.67266e-11 
13 1.11389e-10 9.55168e-11 -9.47005e-11 
17 1.73514e-10 3.06346e-11 1.14676e-10 
21 5.05871e-10 1.18814e-10 1.02515e-10 
25 6.26488e-10 1.46159e-10 -1.39669e-10 
29 2.76405e-10 8.86134e-11 -1.81641e-10 
33 1.74008e-10 -2.97595e-11 8.90134e-11 
37 4.0495e-10 -6.59365e-11 9.77653e-11 
41 5.44629e-10 -1.22452e-10 -1.11184e-10 
45 2.58251e-10 -5.63452e-11 -1.47891e-10 
49 1.01909e-10 -5.95658e-11 6.1215e-11 
53 2.0925e-10 -1.26364e-10 4.10253e-11 
57 2.17729e-10 -1.4608e-10 -3.32828e-11 
61 1.17319e-10 -6.57355e-11 -6.35927e-11 
65 9.5397e-11 1.27779e-10 1.08839e-10 
69 1.23523e-10 1.78913e-10 5.05884e-11 
73 2.01792e-10 2.53079e-10 -6.2589e-11 
77 8.95365e-11 1.19237e-10 -8.91655e-11 
81 2.86968e-11 9.89263e-11 7.08044e-11 
85 3.05204e-11 1.54512e-10 4.44684e-11 
89 5.25382e-11 1.91062e-10 -4.69951e-11 
93 3.81645e-11 1.00395e-10 -7.65742e-11 
97 -1.06932e-11 5.69105e-11 3.84365e-11 
101 -1.30735e-11 1.36413e-10 2.61212e-11 
105 -4.71736e-12 7.37441e-11 -1.49744e-11 
109 -4.52735e-13 3.76683e-11 -2.94755e-11 
113 -1.3628e-11 2.46974e-11 1.92897e-11 
117 -8.72907e-12 1.34052e-11 1.90437e-12 
121 -4.77615e-12 1.3363e-11 -2.28931e-12 
125 -1.47712e-11 2.62239e-11 -1.42958e-11 
129 6.39936e-11 5.05983e-11 7.06393e-11 
133 1.86792e-10 5.11468e-11 2.58206e-10 
137 2.24671e-10 -7.44153e-11 2.86077e-10 
141 8.34878e-11 -7.50357e-11 9.97646e-11 
145 3.33418e-11 6.769e-11 9.15574e-11 
149 6.08695e-11 6.59148e-11 2.56151e-10 
153 7.12977e-11 -6.1526e-11 2.42711e-10 
157 3.87145e-11 -7.39569e-11 1.00046e-10 
161 5.86229e-12 3.11719e-11 5.89884e-11 
165 -1.20203e-11 6.29339e-12 8.47461e-11 
169 -4.77968e-12 -1.59255e-11 7.14368e-11 
173 -1.65935e-11 -3.56932e-11 7.0688e-11 
177 -3.47338e-12 1.26611e-11 2.30957e-11 
181 -2.24441e-11 1.18599e-11 4.40725e-11 
185 -2.06218e-11 -7.63379e-12 3.04685e-11 
189 -1.66645e-11 -1.48598e-11 2.40726e-11 
2 1.61809e-10 1.19106e-10 9.70203e-11 
6 1.90925e-10 1.41353e-10 4.29084e-11 
10 2.50834e-10 1.47594e-10 -3.2986e-11 
14 1.52479e-10 7.54956e-11 -8.21492e-11 
18 1.64333e-10 2.73731e-11 1.05036e-10 
22 5.65077e-10 1.46897e-10 1.23844e-10 
26 5.46864e-10 1.0156e-10 -1.20541e-10 
30 2.14088e-10 4.38909e-11 -1.19914e-10 
34 1.89755e-10 -3.72887e-11 1.2034e-10 
38 4.92828e-10 -1.06147e-10 9.50229e-11 
42 5.0095e-10 -9.77275e-11 -1.01085e-10 
46 1.51909e-10 -3.16486e-11 -1.13644e-10 
50 1.09922e-10 -8.41843e-11 9.23446e-11 
54 3.06285e-10 -2.1787e-10 7.51656e-11 
58 2.44771e-10 -1.60957e-10 -5.88523e-11 
62 1.19811e-10 -6.51725e-11 -8.25797e-11 
66 9.20365e-11 1.13642e-10 6.4334e-11 
70 1.26407e-10 1.7248e-10 3.49237e-11 
74 1.18039e-10 1.54776e-10 -4.44459e-11 
78 5.4723e-11 8.16398e-11 -4.57791e-11 
82 4.77076e-11 1.43401e-10 8.98566e-11 
86 6.82771e-11 2.05688e-10 1.88561e-11 
90 5.48395e-11 1.95835e-10 -4.16493e-11 
94 2.30758e-11 7.8632e-11 -4.6815e-11 
98 -9.13052e-12 5.46019e-11 3.51601e-11 
102 -1.18754e-11 8.82857e-11 1.24219e-11 
106 -8.2078e-12 9.40136e-11 -2.39903e-11 
110 -4.7213e-12 5.45739e-11 -4.20538e-11 
114 -8.41098e-13 7.57858e-12 6.63619e-12 
118 -7.9956e-12 1.50245e-11 -5.52717e-12 
122 -2.29677e-11 4.28093e-11 -1.21835e-11 
126 -1.03971e-11 3.3582e-11 -1.91037e-11 
130 1.05067e-10 7.60351e-11 1.27986e-10 
134 1.07287e-10 2.09593e-11 1.22948e-10 
138 1.09076e-10 -3.6662e-11 1.57268e-10 
142 4.13216e-11 -3.66304e-11 6.50956e-11 
146 3.96918e-11 9.07249e-11 1.26975e-10 
150 6.30527e-11 3.06797e-11 2.42903e-10 
154 6.69432e-11 -4.66458e-11 2.47868e-10 
158 2.20193e-11 -6.25055e-11 8.24361e-11 
162 -5.60945e-12 2.04508e-11 2.76615e-11 
166 -9.98706e-12 2.45565e-11 9.24218e-11 
170 -8.28753e-12 -3.49233e-11 1.0233e-10 
174 -9.9548e-12 -2.38608e-11 3.31497e-11 
178 -1.26718e-11 1.17516e-11 2.86524e-11 
182 -1.14686e-11 2.31252e-12 1.94385e-11 
186 -1.60971e-11 -3.78937e-12 2.92852e-11 
190 -5.41821e-12 -1.08155e-11 8.72778e-12 
3 -1.30847e-11 8.14228e-12 9.2059e-12 
7 -1.45625e-11 1.41996e-11 -1.56168e-12 
11 -3.75806e-12 5.08812e-12 -1.64936e-12 
15 -3.94274e-12 1.23657e-12 -3.37171e-12 
19 0 0 0 
23 -1.16397e-11 4.92888e-12 6.6784e-12 
27 -1.8849e-11 8.75945e-12 -6.43385e-12 
31 -2.97566e-12 1.14072e-12 -3.72294e-12 
35 -5.13477e-12 -7.79417e-13 2.00717e-12 
39 -4.04358e-12 -2.01495e-13 1.87417e-12 
43 -4.14196e-12 -1.55626e-12 -1.14992e-12 
47 0 0 0 
51 0 0 0 
55 -9.43248e-12 -9.10576e-12 2.19716e-12 
59 -2.9769e-12 -2.50521e-12 5.97055e-13 
63 -5.57135e-12 -6.20563e-12 -5.05617e-12 
67 8.71673e-11 -1.19149e-10 1.06204e-10 
71 1.32328e-10 -1.91632e-10 5.50587e-11 
75 1.91041e-10 -2.35261e-10 -7.10887e-11 
79 1.18846e-10 -1.07128e-10 -1.00009e-10 
83 3.71592e-11 -1.16739e-10 9.47838e-11 
87 4.0215e-11 -1.52157e-10 3.16032e-11 
91 8.48739e-11 -2.77652e-10 -7.66579e-11 
95 1.94257e-11 -7.46016e-11 -5.93105e-11 
99 -4.25619e-12 -3.12938e-11 2.02729e-11 
103 -1.27218e-11 -9.04485e-11 1.67838e-11 
107 -1.12819e-11 -1.11508e-10 -2.45857e-11 
111 -2.43813e-12 -5.01279e-11 -2.98547e-11 
115 -1.46164e-11 -2.37777e-11 1.78839e-11 
119 -6.39431e-12 -1.60631e-11 4.29199e-12 
123 -9.69866e-12 -1.36143e-11 -4.93817e-12 
127 -8.09905e-12 -6.08881e-12 -6.41799e-12 
131 5.86795e-11 6.12006e-11 -8.00885e-11 
135 1.19705e-10 3.61363e-11 -1.67667e-10 
139 1.44963e-10 -4.23983e-11 -1.84001e-10 
143 4.90078e-11 -4.56502e-11 -6.18146e-11 
147 1.29143e-11 7.35372e-11 -1.08002e-10 
151 3.66078e-11 3.60549e-11 -1.7859e-10 
155 8.58005e-11 -6.45983e-11 -2.56613e-10 
159 3.31025e-11 -7.46285e-11 -9.60507e-11 
163 -1.37214e-11 2.48658e-11 -4.88338e-11 
167 -7.33215e-12 1.00379e-11 -8.58886e-11 
171 -1.9787e-11 -2.60517e-11 -1.19222e-10 
175 -1.36147e-11 -2.993e-11 -5.21533e-11 
179 -1.22084e-11 1.89396e-11 -3.06551e-11 
183 -1.21894e-11 5.69439e-12 -3.32539e-11 
187 -1.11094e-11 -5.39645e-12 -1.56624e-11 
191 -7.85474e-12 -5.75971e-12 -7.89642e-12 
4 -1.50561e-11 1.90114e-11 1.2042e-11 
8 -8.09798e-12 6.65785e-12 1.71792e-12 
12 -7.6938e-12 6.91821e-12 -4.45376e-12 
16 2.43973e-13 2.67912e-12 5.06496e-13 
20 -1.05901e-11 5.87165e-12 6.4049e-12 
24 -6.80936e-12 3.03722e-12 3.69598e-13 
28 -8.98206e-12 8.14501e-13 7.97273e-13 
32 -2.69282e-11 3.05356e-12 -1.60835e-11 
36 -9.80705e-12 -4.17034e-12 7.1991e-12 
40 -1.72621e-11 -5.84783e-12 5.11335e-12 
44 -3.54635e-11 -3.46442e-12 -8.86938e-12 
48 -1.79572e-11 -9.94231e-12 -1.6342e-11 
52 -8.59081e-12 -1.13057e-11 1.22296e-11 
56 -5.38748e-12 -5.8333e-12 3.73536e-12 
60 -1.03447e-11 -5.60416e-12 -1.91454e-12 
64 -1.29409e-11 -1.36563e-11 -1.59928e-11 
68 9.2452e-11 -1.11074e-10 7.1016e-11 
72 6.06546e-11 -8.56805e-11 1.61645e-11 
76 1.30554e-10 -1.88064e-10 -3.53825e-11 
80 5.15072e-11 -7.39043e-11 -4.13288e-11 
84 5.29252e-11 -1.62877e-10 1.12066e-10 
88 5.48928e-11 -1.69058e-10 1.66077e-11 
92 2.50599e-11 -1.07217e-10 -1.28043e-11 
96 2.0944e-11 -6.87973e-11 -4.18439e-11 
100 -1.65779e-11 -7.08149e-11 5.21215e-11 
104 -2.55886e-11 -1.48794e-10 3.12301e-11 
108 -9.6039e-12 -1.49493e-10 -2.02699e-11 
112 -1.12711e-12 -5.8942e-11 -4.20024e-11 
116 -1.46187e-11 -1.95646e-11 2.50473e-11 
120 -9.9424e-12 -1.91079e-11 2.11631e-12 
124 -1.54853e-11 -2.53024e-11 -2.09976e-12 
128 -1.10426e-11 -1.78317e-11 -1.20014e-11 
132 7.37616e-11 5.97267e-11 -8.91238e-11 
136 1.6212e-10 4.36123e-11 -1.86474e-10 
140 1.11355e-10 -2.82432e-11 -1.63807e-10 
144 6.43798e-11 -4.25655e-11 -1.02759e-10 
148 4.24643e-11 1.00085e-10 -1.39657e-10 
152 6.05764e-11 5.5354e-11 -2.50474e-10 
156 4.01183e-11 -1.99465e-11 -1.37352e-10 
160 2.91333e-11 -8.44988e-11 -1.22599e-10 
164 -3.8162e-12 4.02768e-11 -5.41154e-11 
168 -2.87827e-11 4.50355e-11 -1.5951e-10 
172 -8.52135e-12 -1.95403e-11 -7.1823e-11 
176 -4.48e-13 -1.74434e-11 -2.34777e-11 
180 -1.26061e-11 1.38975e-11 -1.51681e-11 
184 1.80535e-12 1.06292e-12 -7.07966e-12 
188 -1.64347e-11 -8.83628e-12 -3.19114e-11 
192 -1.33722e-11 -2.36684e-11 -2.37983e-11 
ITEM: TIMESTEP
27000
ITEM: NUMBER OF SURFS
192
ITEM: BOX BOUNDS oo rr rr
0 0.0005
0 0.0005
0 0.0005
ITEM: SURFS id f_f_drag_blocks[1] f_f_drag_blocks[2] f_f_drag_blocks[3] 
1 1.45335e-10 8.95692e-11 9.81841e-11 
5 2.79122e-10 1.81251e-10 6.71971e-11 
9 3.14398e-10 1.95887e-10 -6.33458e-11 
13 1.19698e-10 9.51712e-11 -8.21227e-11 
17 2.129e-10 5.01105e-11 1.44951e-10 
21 5.94623e-10 1.17166e-10 1.6055e-10 
25 5.55633e-10 1.43743e-10 -1.17676e-10 
29 1.9989e-10 3.72159e-11 -1.36759e-10 
33 2.24194e-10 -2.40725e-11 1.45126e-10 
37 4.72586e-10 -1.08001e-10 1.13804e-10 
41 6.45522e-10 -1.45894e-10 -1.48277e-10 
45 2.38537e-10 -5.33409e-11 -1.45743e-10 
49 1.65203e-10 -9.03258e-11 9.36662e-11 
53 2.28565e-10 -1.3709e-10 5.03216e-11 
57 2.6273e-10 -1.73586e-10 -5.60953e-11 
61 1.18955e-10 -7.76356e-11 -7.70173e-11 
65 5.21838e-11 7.16696e-11 6.28899e-11 
69 1.02633e-10 1.41903e-10 3.40269e-11 
73 1.42416e-10 1.9196e-10 -3.94965e-11 
77 9.09843e-11 9.14356e-11 -7.84951e-11 
81 4.34442e-11 1.14174e-10 8.66869e-11 
85 6.79768e-11 2.09262e-10 4.51057e-11 
89 7.61601e-11 2.36039e-10 -5.21387e-11 
93 2.96471e-11 8.22008e-11 -6.43681e-11 
97 1.52306e-12 4.07185e-11 2.99441e-11 
101 -4.54201e-12 9.69005e-11 2.7236e-11 
105 -1.00831e-11 8.50715e-11 -1.21049e-11 
109 -8.44857e-12 4.64072e-11 -2.85858e-11 
113 -9.6071e-12 1.07196e-11 3.24915e-12 
117 -9.59404e-12 2.18797e-11 4.53033e-12 
121 -1.32989e-11 7.81473e-12 1.77822e-12 
125 -8.62794e-12 4.7215e-12 -2.92387e-12 
129 4.18354e-11 5.6251e-11 5.42204e-11 
133 1.05932e-10 3.11263e-11 1.66917e-10 
137 1.07761e-10 -3.95904e-11 1.27731e-10 
141 5.37757e-11 -5.71503e-11 7.18743e-11 
145 3.68382e-11 7.67291e-11 1.01343e-10 
149 4.2291e-11 3.88964e-11 1.47452e-10 
153 5.18715e-11 -7.31572e-11 2.51867e-10 
157 4.8381e-11 -1.0982e-10 1.35521e-10 
161 -5.20041e-12 2.99884e-11 4.61125e-11 
165 -1.28391e-11 3.43573e-11 1.15999e-10 
169 -1.46153e-12 -2.76533e-11 1.51597e-10 
173 -1.78747e-11 -4.67259e-11 8.28772e-11 
177 -6.02257e-12 1.01326e-11 2.13252e-11 
181 -2.33018e-12 1.54049e-12 1.05837e-11 
185 -7.51683e-12 -4.72243e-12 1.21935e-11 
189 -8.38538e-12 -4.91334e-12 1.34028e-11 
2 1.55213e-10 1.08865e-10 8.98133e-11 
6 1.47423e-10 7.84038e-11 2.61163e-11 
10 1.52176e-10 8.7805e-11 -3.60198e-11 
14 1.10765e-10 6.81126e-11 -6.46284e-11 
18 2.81587e-10 8.53467e-11 1.73122e-10 
22 5.36347e-10 1.0582e-10 1.02227e-10 
26 5.10266e-10 9.20166e-11 -1.04615e-10 
30 2.9316e-10 6.22012e-11 -1.79733e-10 
34 2.05364e-10 -3.27184e-11 1.34052e-10 
38 6.18069e-10 -1.39291e-10 1.36017e-10 
42 7.0905e-10 -1.49096e-10 -1.70746e-10 
46 2.65969e-10 -4.51238e-11 -1.74377e-10 
50 1.28569e-10 -9.67058e-11 9.20108e-11 
54 2.72187e-10 -1.90083e-10 8.03638e-11 
58 2.57713e-10 -1.5624e-10 -6.38913e-11 
62 1.14474e-10 -7.71342e-11 -9.014e-11 
66 9.91526e-11 1.04119e-10 7.88622e-11 
70 1.32716e-10 1.75542e-10 3.13152e-11 
74 1.27263e-10 1.73226e-10 -2.72045e-11 
78 2.62859e-11 4.06908e-11 -3.30197e-11 
82 2.54739e-11 8.58587e-11 5.29493e-11 
86 6.62236e-11 2.01867e-10 4.93338e-11 
90 4.38575e-11 1.66338e-10 -4.16296e-11 
94 4.92463e-11 1.16292e-10 -7.87436e-11 
98 -5.62061e-12 3.54127e-11 2.51308e-11 
102 -9.20509e-12 7.65409e-11 2.24819e-11 
106 -1.27321e-11 9.51597e-11 -2.36311e-11 
110 -8.47219e-12 5.03472e-11 -3.91167e-11 
114 -7.9418e-12 9.87331e-12 1.0889e-11 
118 -1.38e-11 2.73411e-11 7.91453e-12 
122 -1.19607e-11 1.56647e-11 -2.51574e-12 
126 -1.08752e-11 1.94295e-11 -1.19219e-11 
130 9.99035e-11 7.55528e-11 1.02319e-10 
134 1.56743e-10 4.11794e-11 1.85343e-10 
138 1.36163e-10 -3.86609e-11 1.78187e-10 
142 5.39481e-11 -5.12189e-11 8.16208e-11 
146 3.95387e-11 7.78388e-11 1.26426e-10 
150 4.47096e-11 4.21819e-11 1.42322e-10 
154 5.83726e-11 -5.86741e-11 2.7693e-10 
158 2.76247e-11 -5.228e-11 9.41576e-11 
162 -1.8062e-11 5.02341e-11 7.1392e-11 
166 -8.79939e-12 3.49869e-12 5.86911e-11 
170 -1.9086e-11 -1.71176e-11 9.59677e-11 
174 -6.35112e-12 -3.82721e-11 4.21924e-11 
178 -2.83058e-11 2.55947e-11 3.58632e-11 
182 -6.65843e-12 2.07505e-12 1.09746e-11 
186 -1.54767e-12 -5.12241e-12 7.99392e-12 
190 -1.15311e-11 -1.9639e-11 2.47737e-11 
3 -8.60799e-13 3.62958e-12 1.0427e-12 
7 -1.36295e-11 6.88571e-12 5.04857e-12 
11 -8.45446e-12 1.07583e-11 -2.52959e-12 
15 -1.46667e-11 1.72566e-11 -2.03164e-11 
19 -6.55718e-12 2.52498e-12 2.95083e-12 
23 -1.71195e-11 5.36501e-12 4.2513e-12 
27 -1.81286e-11 4.28246e-12 -6.34938e-12 
31 -5.22552e-12 1.59005e-12 -7.97035e-13 
35 -2.82225e-11 -7.54103e-12 2.0438e-11 
39 -3.38076e-12 -6.99598e-13 -1.65391e-12 
43 0 0 0 
47 -1.04962e-11 -2.09156e-12 -5.43583e-12 
51 -7.64473e-12 -4.76491e-12 5.64226e-12 
55 -1.51223e-12 -4.51797e-12 2.57298e-12 
59 -8.36867e-12 -4.97751e-12 -7.99026e-13 
63 -5.48601e-12 -5.31967e-12 -5.20797e-12 
67 6.96475e-11 -7.50777e-11 6.6289e-11 
71 1.14628e-10 -1.62767e-10 3.07505e-11 
75 1.58075e-10 -2.05566e-10 -4.1938e-11 
79 1.24584e-10 -1.21779e-10 -9.31887e-11 
83 1.51808e-11 -5.73446e-11 3.45506e-11 
87 5.8641e-11 -1.80128e-10 3.1744e-11 
91 6.49029e-11 -2.11179e-10 -4.53442e-11 
95 2.8797e-11 -8.71045e-11 -4.54029e-11 
99 -4.69751e-12 -6.13089e-11 3.48021e-11 
103 -1.18704e-11 -8.18408e-11 2.18635e-11 
107 -5.36062e-12 -7.11013e-11 -1.42959e-11 
111 -1.18435e-11 -4.48012e-11 -2.17641e-11 
115 -5.38818e-12 -1.47844e-11 8.42804e-12 
119 -1.47689e-11 -2.21648e-11 -1.08625e-12 
123 -2.36917e-12 -1.02939e-11 -4.02042e-12 
127 -3.97715e-12 -5.84817e-12 -4.62829e-12 
131 7.39633e-11 6.38733e-11 -8.52456e-11 
135 2.00281e-10 7.28578e-11 -2.40452e-10 
139 1.28636e-10 -4.81907e-11 -1.76874e-10 
143 1.1909e-10 -9.50998e-11 -1.12234e-10 
147 1.93006e-11 4.23797e-11 -7.29224e-11 
151 4.91727e-11 4.9998e-11 -1.72497e-10 
155 8.18399e-11 -5.87389e-11 -2.31636e-10 
159 4.80306e-11 -1.02379e-10 -1.41132e-10 
163 -3.48132e-12 4.27174e-11 -5.5793e-11 
167 -8.43145e-12 1.09704e-11 -6.72632e-11 
171 -2.50154e-11 -1.10962e-11 -1.00876e-10 
175 -3.94507e-12 -2.35332e-11 -3.22938e-11 
179 -4.30455e-12 6.13975e-12 -7.66548e-12 
183 -1.46e-11 9.64451e-12 -2.9394e-11 
187 -2.2297e-11 -6.67035e-12 -3.14088e-11 
191 -6.27347e-12 -4.20487e-12 -9.20724e-12 
4 -4.33887e-13 9.43826e-13 8.98102e-13 
8 -5.6297e-12 1.81442e-12 5.25599e-13 
12 -7.59979e-12 3.99455e-12 -3.17951e-12 
16 -1.72762e-11 8.2987e-12 -1.24675e-11 
20 -2.71249e-12 1.50317e-13 3.53174e-12 
24 -8.70725e-12 -1.35683e-12 2.63258e-12 
28 -5.94633e-12 7.95453e-12 -1.13902e-12 
32 -6.36003e-12 4.99576e-12 -1.75812e-12 
36 -7.84705e-12 -4.22748e-12 9.59831e-12 
40 -2.24796e-11 -4.96299e-12 5.91162e-12 
44 -1.92716e-11 -4.96444e-12 -3.75492e-12 
48 -6.85499e-12 -5.19574e-12 -1.63361e-11 
52 -3.83636e-12 -1.01092e-11 5.92229e-12 
56 -1.9995e-12 -1.0702e-12 1.62161e-12 
60 -1.56325e-11 -9.2102e-12 -3.48187e-13 
64 7.18255e-13 -4.06581e-12 -4.74529e-12 
68 9.5388e-11 -1.20045e-10 6.05933e-11 
72 7.40345e-11 -9.40615e-11 1.5323e-11 
76 6.48997e-11 -1.03435e-10 -1.95645e-11 
80 5.8804e-11 -9.41758e-11 -5.58878e-11 
84 3.60769e-11 -1.34259e-10 8.50725e-11 
88 7.33038e-11 -2.09488e-10 4.68034e-11 
92 6.96557e-11 -2.09797e-10 -3.2851e-11 
96 1.54412e-11 -6.43537e-11 -5.40255e-11 
100 -7.86244e-12 -7.38786e-11 5.07989e-11 
104 -7.49877e-12 -1.14203e-10 3.43274e-11 
108 -2.29762e-11 -1.13798e-10 -2.08607e-11 
112 -3.03156e-12 -6.01555e-11 -4.69662e-11 
116 -1.19152e-11 -5.26864e-12 1.03018e-11 
120 -2.23019e-11 -3.70335e-11 8.22303e-12 
124 -1.24755e-11 -2.8203e-11 -8.96648e-12 
128 -2.36617e-11 -4.5044e-11 -2.94721e-11 
132 8.39988e-11 7.82583e-11 -1.13711e-10 
136 7.51516e-11 2.27048e-11 -9.51228e-11 
140 9.21047e-11 -4.08763e-11 -1.36866e-10 
144 2.97838e-11 -2.97856e-11 -5.47112e-11 
148 3.45751e-11 6.259e-11 -9.15433e-11 
152 3.88481e-11 2.65871e-11 -1.52546e-10 
156 6.16985e-11 -3.60761e-11 -1.96611e-10 
160 2.18236e-11 -5.79885e-11 -9.79093e-11 
164 -1.60293e-11 6.73508e-11 -7.99002e-11 
168 -2.75215e-11 3.88594e-11 -1.41349e-10 
172 -6.91193e-12 -3.19309e-11 -8.27097e-11 
176 -9.58858e-12 -3.48932e-11 -4.8971e-11 
180 -2.41686e-12 5.3325e-12 -6.38256e-12 
184 -2.25717e-11 2.1596e-12 -3.86117e-11 
188 -1.65175e-11 -9.12974e-12 -2.90734e-11 
192 -8.2464e-12 -2.28026e-11 -2.16955e-11 
ITEM: TIMESTEP
28000
ITEM: NUMBER OF SURFS
192
ITEM: BOX BOUNDS oo rr rr
0 0.0005
0 0.0005
0 0.0005
ITEM: SURFS id f_f_drag_blocks[1] f_f_drag_blocks[2] f_f_drag_blocks[3] 
1 1.50051e-10 8.79177e-11 1.1092e-10 
5 2.63585e-10 1.46373e-10 5.12432e-11 
9 2.81988e-10 1.75523e-10 -7.17819e-11 
13 9.63193e-11 7.28054e-11 -8.36005e-11 
17 1.59283e-10 1.95186e-11 1.06577e-10 
21 5.19434e-10 1.02634e-10 1.12287e-10 
25 6.55128e-10 1.74434e-10 -1.49798e-10 
29 2.48878e-10 6.29445e-11 -1.86674e-10 
33 2.90814e-10 -3.4715e-11 1.7522e-10 
37 5.04592e-10 -1.06484e-10 7.27629e-11 
41 5.61978e-10 -1.24388e-10 -1.39872e-10 
45 2.36196e-10 -4.80846e-11 -1.44688e-10 
49 1.37118e-10 -7.83617e-11 8.01986e-11 
53 2.54293e-10 -1.64982e-10 3.75114e-11 
57 2.09208e-10 -1.47202e-10 -4.9132e-11 
61 1.84712e-10 -1.42691e-10 -1.15286e-10 
65 8.34022e-11 1.00003e-10 6.72475e-11 
69 1.16068e-10 1.73597e-10 5.09282e-11 
73 1.88619e-10 2.2443e-10 -5.17454e-11 
77 1.04259e-10 9.88222e-11 -7.729e-11 
81 2.90285e-11 9.46508e-11 7.7602e-11 
85 7.41978e-11 1.9625e-10 4.18697e-11 
89 6.45845e-11 1.9203e-10 -4.69808e-11 
93 2.31808e-11 1.0109e-10 -6.30987e-11 
97 -9.31611e-13 1.33098e-11 1.2955e-11 
101 -1.04914e-12 1.31015e-10 2.80933e-11 
105 -2.40232e-11 8.37344e-11 -3.04652e-11 
109 -4.6013e-12 2.62193e-11 -2.14273e-11 
113 -1.58959e-11 2.50783e-11 1.69958e-11 
117 -1.23695e-12 1.53872e-11 5.43495e-12 
121 -2.84063e-11 3.8302e-11 -2.44147e-12 
125 -4.2572e-12 4.93083e-12 -3.40961e-13 
129 7.07363e-11 8.63401e-11 9.17955e-11 
133 1.34639e-10 4.23212e-11 1.83531e-10 
137 1.63984e-10 -5.78862e-11 2.04675e-10 
141 9.62913e-11 -1.00902e-10 1.22987e-10 
145 2.09211e-11 4.78135e-11 7.1382e-11 
149 3.9974e-11 2.50683e-11 1.51902e-10 
153 6.05342e-11 -4.13529e-11 1.57094e-10 
157 4.16232e-11 -7.68003e-11 9.82912e-11 
161 -8.98231e-12 3.18091e-11 4.97657e-11 
165 -9.03146e-12 1.41791e-11 6.83299e-11 
169 -1.30646e-11 -2.65976e-11 9.2558e-11 
173 -1.41532e-11 -5.17133e-11 7.40414e-11 
177 -4.5031e-12 8.46261e-12 1.4112e-11 
181 -1.96728e-11 8.23982e-12 4.34363e-11 
185 -6.13511e-12 -2.83022e-12 1.82648e-11 
189 -8.4466e-12 -6.22767e-12 1.73874e-11 
2 1.12597e-10 7.90535e-11 8.20868e-11 
6 2.0259e-10 1.42976e-10 2.43892e-11 
10 2.15901e-10 1.32345e-10 -4.97986e-11 
14 9.60179e-11 5.20864e-11 -5.07769e-11 
18 2.31409e-10 5.45591e-11 1.63853e-10 
22 5.671e-10 1.23817e-10 1.12666e-10 
26 4.48275e-10 8.34998e-11 -8.7629e-11 
30 1.68778e-10 3.93838e-11 -7.66113e-11 
34 2.50859e-10 -5.35681e-11 1.62125e-10 
38 5.86816e-10 -1.31606e-10 1.45103e-10 
42 5.90519e-10 -1.12659e-10 -1.2181e-10 
46 2.47019e-10 -7.20244e-11 -1.65609e-10 
50 1.13836e-10 -9.12268e-11 8.33485e-11 
54 3.26705e-10 -2.1266e-10 8.8892e-11 
58 2.14638e-10 -1.18636e-10 -5.04414e-11 
62 1.1054e-10 -5.4707e-11 -7.19838e-11 
66 7.28167e-11 9.01799e-11 4.74746e-11 
70 1.54077e-10 1.88438e-10 4.77876e-11 
74 1.05967e-10 1.25337e-10 -1.93676e-11 
78 5.20222e-11 9.00721e-11 -5.31139e-11 
82 2.14651e-11 8.88801e-11 6.6826e-11 
86 4.24259e-11 1.74471e-10 3.57266e-11 
90 5.62114e-11 1.98914e-10 -4.74544e-11 
94 2.86817e-11 1.0211e-10 -6.90647e-11 
98 -1.44827e-11 6.28592e-11 4.63812e-11 
102 -2.49254e-11 1.73641e-10 4.90388e-11 
106 -1.99289e-11 1.26215e-10 -2.87419e-11 
110 -3.08698e-12 5.02812e-11 -3.49535e-11 
114 -1.28941e-11 2.68526e-11 1.4193e-11 
118 -1.93338e-11 3.11372e-11 1.06064e-11 
122 -1.36006e-11 2.93995e-11 -8.84522e-12 
126 -9.56824e-12 1.53932e-11 -1.18735e-11 
130 4.84914e-11 3.57785e-11 6.19773e-11 
134 1.38052e-10 3.22227e-11 1.55287e-10 
138 8.05944e-11 -1.77881e-11 1.15199e-10 
142 5.95669e-11 -5.09837e-11 9.24512e-11 
146 3.66974e-11 7.80773e-11 1.09924e-10 
150 5.42089e-11 4.82386e-11 1.94771e-10 
154 4.31134e-11 -4.51895e-11 1.88802e-10 
158 1.58441e-11 -4.73978e-11 6.93041e-11 
162 -6.94097e-12 3.10314e-11 4.39018e-11 
166 -6.60246e-12 7.07713e-12 8.24192e-11 
170 -1.78673e-11 -2.07415e-11 8.94735e-11 
174 -1.01816e-11 -5.16767e-11 7.46685e-11 
178 -9.89838e-12 1.27452e-11 7.3447e-12 
182 -7.49957e-12 7.16651e-12 2.53803e-11 
186 -3.94508e-12 6.00429e-13 5.52092e-12 
190 -9.59333e-12 -7.32035e-12 1.58791e-11 
3 -5.79828e-12 9.22038e-12 8.76597e-12 
7 -8.98906e-12 5.92715e-12 1.11984e-12 
11 -7.95601e-12 6.37795e-12 -1.70957e-12 
15 -4.73817e-13 6.17933e-12 -3.80703e-12 
19 -5.25731e-12 5.11565e-13 2.08841e-12 
23 -7.53863e-12 -2.94913e-13 4.37e-12 
27 -6.37413e-12 5.40736e-12 6.65222e-13 
31 -1.40759e-11 2.7802e-12 -1.02082e-11 
35 -5.74918e-12 -1.80842e-12 7.65643e-12 
39 -1.98785e-11 -5.92268e-12 4.21652e-12 
43 -1.08079e-11 -3.42429e-12 -6.04821e-12 
47 -1.90377e-11 -9.87704e-12 -1.00051e-11 
51 -4.86513e-12 -3.01402e-12 4.56352e-12 
55 -1.57086e-11 -7.96586e-12 -2.61606e-12 
59 -9.88489e-12 -1.11722e-11 -4.50452e-12 
63 -1.45031e-11 -1.09733e-11 -1.74723e-11 
67 6.82835e-11 -8.37498e-11 7.35238e-11 
71 1.22871e-10 -1.75664e-10 3.39544e-11 
75 1.62051e-10 -1.80052e-10 -5.41789e-11 
79 9.763e-11 -1.06332e-10 -9.48829e-11 
83 2.26723e-11 -6.83005e-11 5.14806e-11 
87 6.58666e-11 -2.4727e-10 6.10156e-11 
91 5.27984e-11 -1.7647e-10 -3.4671e-11 
95 3.37777e-11 -8.82853e-11 -6.74604e-11 
99 8.63954e-13 -3.34615e-11 1.47455e-11 
103 -6.29935e-12 -1.30649e-10 2.41076e-11 
107 -2.10515e-12 -4.4492e-11 -3.82995e-12 
111 -1.64997e-11 -7.75113e-11 -5.64335e-11 
115 -6.14665e-12 -2.78835e-11 1.17412e-11 
119 -1.51007e-11 -2.50132e-11 1.86678e-12 
123 -6.27659e-12 -9.78288e-12 -3.81335e-13 
127 -6.0879e-12 -1.80777e-11 -9.68979e-12 
131 7.36938e-11 7.06708e-11 -9.65108e-11 
135 1.55123e-10 5.17969e-11 -2.21849e-10 
139 9.39642e-11 -2.8189e-11 -1.24094e-10 
143 1.1607e-10 -1.06587e-10 -1.19439e-10 
147 2.72072e-11 7.2609e-11 -1.20436e-10 
151 3.8852e-11 4.21265e-11 -1.85723e-10 
155 6.37461e-11 -4.73189e-11 -1.97522e-10 
159 4.70284e-11 -1.10568e-10 -1.45443e-10 
163 -5.274e-12 2.7299e-11 -4.22017e-11 
167 -7.73121e-12 1.40322e-11 -8.72486e-11 
171 -1.47546e-11 -2.72411e-11 -1.18233e-10 
175 -1.39147e-11 -3.40488e-11 -6.94574e-11 
179 -5.5944e-12 1.00779e-11 -1.53008e-11 
183 -1.27919e-11 8.36764e-12 -3.0804e-11 
187 -5.4147e-12 2.92543e-12 -7.73772e-12 
191 -1.90236e-12 -8.0847e-12 -7.75969e-12 
4 -4.38382e-12 3.90306e-12 2.78707e-12 
8 -3.86427e-12 2.84454e-12 -2.4058e-12 
12 -7.5582e-12 4.30588e-12 -2.7451e-12 
16 -7.00067e-12 4.67035e-12 -4.26817e-12 
20 -7.55869e-12 3.52173e-12 7.77734e-12 
24 -1.3416e-11 4.40894e-12 3.79839e-12 
28 -2.32419e-12 -1.77138e-12 1.34977e-12 
32 -7.88471e-12 8.81493e-13 -3.80763e-12 
36 -1.05178e-11 -2.74282e-12 9.38377e-12 
40 -1.55358e-11 -1.22564e-12 3.83685e-13 
44 -2.96726e-12 -9.81059e-13 -3.14116e-12 
48 -1.57351e-11 -5.42311e-13 -1.05723e-11 
52 -2.12868e-11 -1.65661e-11 1.95435e-11 
56 -5.92356e-12 -7.00476e-12 1.7158e-12 
60 -8.3792e-12 -5.36897e-12 -3.04267e-13 
64 -5.6686e-12 -4.34004e-12 -7.10829e-12 
68 8.55033e-11 -9.13102e-11 5.93997e-11 
72 1.21973e-10 -1.49499e-10 2.24872e-11 
76 1.37737e-10 -1.92117e-10 -4.43658e-11 
80 6.30283e-11 -8.87218e-11 -5.8187e-11 
84 3.61032e-11 -1.01808e-10 7.03657e-11 
88 5.98125e-11 -1.80473e-10 3.53701e-11 
92 6.94468e-11 -2.21807e-10 -3.9432e-11 
96 2.80548e-11 -1.1345e-10 -5.45466e-11 
100 -6.78724e-12 -8.26984e-11 5.99699e-11 
104 -9.75782e-12 -7.71973e-11 1.70914e-11 
108 -1.18937e-11 -9.05281e-11 -2.60538e-11 
112 -3.88825e-12 -6.23481e-11 -4.32993e-11 
116 -7.23209e-12 -1.48862e-11 8.9529e-12 
120 -4.32612e-12 -7.86344e-12 5.73697e-12 
124 -1.42003e-11 -1.46701e-11 -3.36519e-12 
128 -1.24657e-11 -1.96033e-11 -1.17793e-11 
132 1.04093e-10 8.35045e-11 -1.12303e-10 
136 1.302e-10 1.53732e-11 -1.58691e-10 
140 8.2366e-11 -1.31655e-11 -1.31421e-10 
144 5.00241e-11 -5.46033e-11 -7.82431e-11 
148 3.60751e-11 7.20453e-11 -1.35646e-10 
152 8.43875e-11 4.68653e-11 -2.43472e-10 
156 4.72648e-11 -4.48552e-11 -1.69448e-10 
160 2.00235e-11 -4.37279e-11 -7.93488e-11 
164 -1.16e-11 4.65051e-11 -7.14035e-11 
168 -8.12638e-12 1.5863e-11 -9.72828e-11 
172 -9.69399e-12 -2.58203e-11 -9.42354e-11 
176 -8.2846e-12 -2.50013e-11 -3.88416e-11 
180 -9.29826e-12 2.03124e-11 -1.68658e-11 
184 -1.54895e-11 5.03912e-12 -3.02354e-11 
188 -1.07891e-11 -2.27739e-12 -2.97052e-11 
192 -3.69503e-12 -8.94317e-12 -7.95704e-12 
ITEM: TIMESTEP
29000
ITEM: NUMBER OF SURFS
192
ITEM: BOX BOUNDS oo rr rr
0 0.0005
0 0.0005
0 0.0005
ITEM: SURFS id f_f_drag_blocks[1] f_f_drag_blocks[2] f_f_drag_blocks[3] 
1 1.80412e-10 1.04533e-10 1.19703e-10 
5 2.96495e-10 1.8428e-10 6.42109e-11 
9 2.34223e-10 1.50529e-10 -6.36646e-11 
13 1.2655e-10 1.04374e-10 -9.74665e-11 
17 2.27401e-10 4.61865e-11 1.59825e-10 
21 5.06861e-10 1.03508e-10 9.46409e-11 
25 6.51247e-10 1.61311e-10 -1.15975e-10 
29 3.13266e-10 7.06274e-11 -2.29742e-10 
33 1.72029e-10 -2.34499e-11 1.00531e-10 
37 5.02702e-10 -8.00055e-11 1.07322e-10 
41 5.49101e-10 -1.23439e-10 -9.19763e-11 
45 2.75687e-10 -7.77843e-11 -1.71128e-10 
49 1.5431e-10 -8.2072e-11 8.65416e-11 
53 2.36374e-10 -1.42105e-10 5.7381e-11 
57 2.2142e-10 -1.52951e-10 -4.04491e-11 
61 1.16913e-10 -8.70919e-11 -7.22763e-11 
65 5.9831e-11 8.17532e-11 5.38927e-11 
69 1.01347e-10 1.46442e-10 5.80493e-11 
73 1.09495e-10 1.67759e-10 -4.9783e-11 
77 7.33888e-11 7.24941e-11 -6.65437e-11 
81 2.10574e-11 7.81813e-11 5.09093e-11 
85 4.94745e-11 1.87904e-10 3.69858e-11 
89 5.64195e-11 2.14633e-10 -4.50915e-11 
93 2.22465e-11 7.12245e-11 -5.39832e-11 
97 -3.58447e-12 5.3853e-11 2.13714e-11 
101 -1.75192e-11 8.57545e-11 2.15139e-11 
105 -1.35555e-11 1.16325e-10 -2.24061e-11 
109 -1.50426e-11 8.30436e-11 -5.1446e-11 
113 -7.04991e-12 1.49634e-11 1.03749e-11 
117 -5.0822e-12 3.24028e-11 9.97165e-12 
121 -5.68107e-12 5.55554e-12 -1.39255e-12 
125 -1.2533e-11 2.27013e-11 -2.02954e-11 
129 6.61532e-11 7.24223e-11 9.94503e-11 
133 1.3431e-10 4.34561e-11 1.65447e-10 
137 1.98777e-10 -5.06859e-11 2.38882e-10 
141 1.05285e-10 -9.3822e-11 1.24562e-10 
145 3.91334e-11 7.98036e-11 1.16165e-10 
149 5.62815e-11 6.39579e-11 1.93882e-10 
153 8.82854e-11 -5.06646e-11 2.41569e-10 
157 3.91133e-11 -8.74535e-11 1.10969e-10 
161 -6.08654e-12 2.30654e-11 4.0657e-11 
165 -1.01841e-11 2.91307e-11 9.21373e-11 
169 -1.62406e-11 -1.61768e-11 7.85708e-11 
173 -1.17961e-11 -3.61592e-11 5.30418e-11 
177 -3.83866e-12 8.47834e-12 1.11649e-11 
181 -2.39727e-11 4.14973e-12 2.82831e-11 
185 -1.50143e-11 -6.031e-12 2.04154e-11 
189 -6.74205e-12 -4.20333e-12 6.8421e-12 
2 1.50439e-10 1.21001e-10 9.44992e-11 
6 2.27535e-10 1.61789e-10 4.05757e-11 
10 2.38306e-10 1.49396e-10 -3.85848e-11 
14 9.7078e-11 5.45468e-11 -6.05045e-11 
18 3.02803e-10 1.00093e-10 1.96795e-10 
22 5.70525e-10 1.28134e-10 1.10295e-10 
26 4.79869e-10 1.11e-10 -9.47912e-11 
30 2.62223e-10 2.7114e-11 -1.62475e-10 
34 2.37871e-10 -6.74232e-11 1.75303e-10 
38 5.51156e-10 -1.27231e-10 1.17285e-10 
42 6.12622e-10 -1.04321e-10 -1.32461e-10 
46 1.89338e-10 -4.03147e-11 -1.47671e-10 
50 8.47581e-11 -6.95635e-11 6.3476e-11 
54 2.98418e-10 -2.33863e-10 7.10655e-11 
58 3.31181e-10 -1.92358e-10 -7.91212e-11 
62 1.16324e-10 -7.83402e-11 -8.37149e-11 
66 9.8091e-11 1.08736e-10 6.87798e-11 
70 1.39778e-10 1.97098e-10 3.5621e-11 
74 7.05754e-11 1.29055e-10 -3.18672e-11 
78 3.92071e-11 6.45679e-11 -3.83977e-11 
82 4.72691e-11 1.49198e-10 9.68885e-11 
86 6.9317e-11 2.07235e-10 4.51302e-11 
90 4.31716e-11 1.57787e-10 -3.50616e-11 
94 1.35016e-11 8.7012e-11 -6.26165e-11 
98 -4.63219e-12 2.66779e-11 1.35492e-11 
102 -1.42942e-11 1.06201e-10 1.49556e-11 
106 -4.73173e-12 1.15689e-10 -3.2109e-11 
110 -6.86248e-12 4.04252e-11 -3.32582e-11 
114 -1.58991e-11 3.00007e-11 1.91742e-11 
118 -2.21137e-11 2.67575e-11 8.74473e-12 
122 -1.93521e-11 3.44056e-11 -1.32663e-11 
126 -9.98928e-12 1.84576e-11 -1.55027e-11 