ITEM: TIMESTEP
0
ITEM: NUMBER OF SURFS
192
ITEM: BOX BOUNDS oo rr rr
0 0.0005
0 0.0005
0 0.0005
ITEM: SURFS id f_f_drag_blocks[1] f_f_drag_blocks[2] f_f_drag_blocks[3] 
1 0 0 0 
5 0 0 0 
9 0 0 0 
13 0 0 0 
17 0 0 0 
21 0 0 0 
25 0 0 0 
29 0 0 0 
33 0 0 0 
37 0 0 0 
41 0 0 0 
45 0 0 0 
49 0 0 0 
53 0 0 0 
57 0 0 0 
61 0 0 0 
65 0 0 0 
69 0 0 0 
73 0 0 0 
77 0 0 0 
81 0 0 0 
85 0 0 0 
89 0 0 0 
93 0 0 0 
97 0 0 0 
101 0 0 0 
105 0 0 0 
109 0 0 0 
113 0 0 0 
117 0 0 0 
121 0 0 0 
125 0 0 0 
129 0 0 0 
133 0 0 0 
137 0 0 0 
141 0 0 0 
145 0 0 0 
149 0 0 0 
153 0 0 0 
157 0 0 0 
161 0 0 0 
165 0 0 0 
169 0 0 0 
173 0 0 0 
177 0 0 0 
181 0 0 0 
185 0 0 0 
189 0 0 0 
2 0 0 0 
6 0 0 0 
10 0 0 0 
14 0 0 0 
18 0 0 0 
22 0 0 0 
26 0 0 0 
30 0 0 0 
34 0 0 0 
38 0 0 0 
42 0 0 0 
46 0 0 0 
50 0 0 0 
54 0 0 0 
58 0 0 0 
62 0 0 0 
66 0 0 0 
70 0 0 0 
74 0 0 0 
78 0 0 0 
82 0 0 0 
86 0 0 0 
90 0 0 0 
94 0 0 0 
98 0 0 0 
102 0 0 0 
106 0 0 0 
110 0 0 0 
114 0 0 0 
118 0 0 0 
122 0 0 0 
126 0 0 0 
130 0 0 0 
134 0 0 0 
138 0 0 0 
142 0 0 0 
146 0 0 0 
150 0 0 0 
154 0 0 0 
158 0 0 0 
162 0 0 0 
166 0 0 0 
170 0 0 0 
174 0 0 0 
178 0 0 0 
182 0 0 0 
186 0 0 0 
190 0 0 0 
3 0 0 0 
7 0 0 0 
11 0 0 0 
15 0 0 0 
19 0 0 0 
23 0 0 0 
27 0 0 0 
31 0 0 0 
35 0 0 0 
39 0 0 0 
43 0 0 0 
47 0 0 0 
51 0 0 0 
55 0 0 0 
59 0 0 0 
63 0 0 0 
67 0 0 0 
71 0 0 0 
75 0 0 0 
79 0 0 0 
83 0 0 0 
87 0 0 0 
91 0 0 0 
95 0 0 0 
99 0 0 0 
103 0 0 0 
107 0 0 0 
111 0 0 0 
115 0 0 0 
119 0 0 0 
123 0 0 0 
127 0 0 0 
131 0 0 0 
135 0 0 0 
139 0 0 0 
143 0 0 0 
147 0 0 0 
151 0 0 0 
155 0 0 0 
159 0 0 0 
163 0 0 0 
167 0 0 0 
171 0 0 0 
175 0 0 0 
179 0 0 0 
183 0 0 0 
187 0 0 0 
191 0 0 0 
4 0 0 0 
8 0 0 0 
12 0 0 0 
16 0 0 0 
20 0 0 0 
24 0 0 0 
28 0 0 0 
32 0 0 0 
36 0 0 0 
40 0 0 0 
44 0 0 0 
48 0 0 0 
52 0 0 0 
56 0 0 0 
60 0 0 0 
64 0 0 0 
68 0 0 0 
72 0 0 0 
76 0 0 0 
80 0 0 0 
84 0 0 0 
88 0 0 0 
92 0 0 0 
96 0 0 0 
100 0 0 0 
104 0 0 0 
108 0 0 0 
112 0 0 0 
116 0 0 0 
120 0 0 0 
124 0 0 0 
128 0 0 0 
132 0 0 0 
136 0 0 0 
140 0 0 0 
144 0 0 0 
148 0 0 0 
152 0 0 0 
156 0 0 0 
160 0 0 0 
164 0 0 0 
168 0 0 0 
172 0 0 0 
176 0 0 0 
180 0 0 0 
184 0 0 0 
188 0 0 0 
192 0 0 0 
ITEM: TIMESTEP
200
ITEM: NUMBER OF SURFS
192
ITEM: BOX BOUNDS oo rr rr
0 0.0005
0 0.0005
0 0.0005
ITEM: SURFS id f_f_drag_blocks[1] f_f_drag_blocks[2] f_f_drag_blocks[3] 
1 0 0 0 
5 1.96727e-10 1.19037e-10 7.68802e-11 
9 3.43463e-10 3.1509e-10 -1.09007e-10 
13 3.44907e-10 2.4778e-10 -2.35687e-10 
17 1.43477e-10 -7.30697e-11 8.86967e-11 
21 8.71434e-10 2.23757e-10 1.85502e-10 
25 1.57749e-09 5.78805e-10 -4.91087e-10 
29 3.02041e-10 6.26733e-11 -1.70057e-10 
33 2.00123e-10 -5.39404e-11 1.57511e-10 
37 6.33163e-10 -1.27819e-10 7.00336e-11 
41 3.76372e-10 -9.42929e-11 -8.58535e-11 
45 5.29282e-10 -3.45881e-11 -1.51078e-10 
49 9.05817e-11 -4.05153e-11 6.02214e-11 
53 0 0 0 
57 4.30211e-10 -2.99994e-10 -1.64389e-10 
61 0 0 0 
65 0 0 0 
69 1.7073e-10 2.61381e-10 5.7277e-11 
73 1.18524e-10 1.77813e-10 -9.38649e-11 
77 1.76315e-10 2.50348e-10 -1.1389e-10 
81 0 0 0 
85 5.80624e-11 1.26364e-10 9.04911e-11 
89 3.5104e-11 2.72616e-10 -1.04271e-10 
93 2.20288e-10 7.75559e-10 -4.83157e-10 
97 -6.82234e-11 1.47829e-10 6.19818e-11 
101 0 0 0 
105 -1.75585e-11 1.27396e-10 -1.17523e-10 
109 1.8641e-11 9.37309e-11 -1.88406e-11 
113 -7.04559e-11 1.20207e-10 1.15669e-10 
117 0 0 0 
121 0 0 0 
125 0 0 0 
129 3.3716e-11 1.21515e-11 8.42787e-11 
133 0 0 0 
137 1.58192e-10 2.54282e-11 1.79528e-10 
141 1.8649e-10 -2.03253e-10 1.0582e-10 
145 0 0 0 
149 4.60081e-11 5.19511e-12 6.36551e-11 
153 -1.37146e-11 -4.65073e-11 2.66023e-11 
157 -6.38421e-12 -1.91842e-10 1.92055e-10 
161 0 0 0 
165 5.68407e-11 3.41055e-11 9.24343e-11 
169 1.89683e-11 -1.88199e-11 3.49841e-10 
173 -1.05512e-11 -1.11407e-10 1.55696e-10 
177 0 0 0 
181 -7.40717e-11 3.67764e-11 1.63974e-10 
185 -4.83461e-11 -4.6827e-11 8.32211e-11 
189 -4.39904e-11 -6.55183e-11 8.67032e-11 
2 0 0 0 
6 1.40421e-10 9.0264e-12 6.95996e-12 
10 0 0 0 
14 0 0 0 
18 2.41532e-10 1.2142e-10 1.4058e-10 
22 5.57309e-10 1.51204e-10 1.75183e-10 
26 2.86392e-10 8.65727e-11 -1.80557e-11 
30 0 0 0 
34 3.62469e-10 -7.93731e-11 2.6089e-10 
38 3.66318e-10 -4.65336e-11 7.68376e-11 
42 4.27023e-10 -1.65522e-10 -6.74773e-11 
46 2.69987e-10 -6.10338e-11 -3.17447e-10 
50 1.08522e-10 -8.368e-11 3.62235e-11 
54 8.1665e-11 -1.129e-10 1.12631e-11 
58 1.33187e-10 -1.11597e-10 -5.59985e-11 
62 4.8688e-10 -2.55172e-10 -3.76854e-10 
66 1.98996e-10 2.18984e-10 1.73469e-10 
70 0 0 0 
74 1.06439e-10 2.55864e-10 2.09922e-11 
78 0 0 0 
82 1.22449e-10 2.13994e-10 2.11967e-10 
86 9.9145e-11 3.90448e-10 3.50856e-11 
90 5.85877e-11 1.02314e-10 -3.83799e-11 
94 0 0 0 
98 0 0 0 
102 -2.45017e-12 6.5765e-11 5.78087e-11 
106 0 0 0 
110 9.03168e-12 1.32041e-11 -7.03528e-11 
114 0 0 0 
118 0 0 0 
122 0 0 0 
126 3.1246e-11 4.74658e-11 -5.39435e-11 
130 0 0 0 
134 1.57543e-10 7.23487e-11 1.53595e-10 
138 0 0 0 
142 0 0 0 
146 0 0 0 
150 0 0 0 
154 6.36789e-11 2.90596e-11 6.70613e-11 
158 0 0 0 
162 0 0 0 
166 -1.71028e-12 1.30832e-11 6.14776e-11 
170 0 0 0 
174 0 0 0 
178 0 0 0 
182 0 0 0 
186 0 0 0 
190 0 0 0 
3 0 0 0 
7 0 0 0 
11 -5.46413e-11 6.05386e-11 3.94669e-11 
15 0 0 0 
19 0 0 0 
23 0 0 0 
27 0 0 0 
31 -8.1314e-11 2.49135e-11 -2.02972e-11 
35 0 0 0 
39 -8.81668e-11 -1.12324e-11 8.6793e-12 
43 -9.96171e-11 -6.87851e-11 -2.18754e-11 
47 0 0 0 
51 0 0 0 
55 0 0 0 
59 0 0 0 
63 0 0 0 
67 0 0 0 
71 2.20111e-10 -1.64247e-10 5.12932e-11 
75 0 0 0 
79 1.204e-10 -1.37869e-10 -9.63903e-11 
83 0 0 0 
87 0 0 0 
91 1.35403e-10 -4.85789e-10 -1.16982e-10 
95 -1.53062e-11 -9.71843e-11 -1.01372e-10 
99 0 0 0 
103 0 0 0 
107 0 0 0 
111 0 0 0 
115 0 0 0 
119 0 0 0 
123 0 0 0 
127 0 0 0 
131 0 0 0 
135 1.13656e-10 -1.70983e-11 -1.5879e-10 
139 0 0 0 
143 0 0 0 
147 0 0 0 
151 1.1111e-10 3.87969e-11 -3.05817e-10 
155 1.05093e-10 -1.22519e-10 -3.05617e-10 
159 1.10428e-10 -9.63189e-11 -2.05719e-10 
163 6.36275e-11 6.69256e-11 -1.13729e-10 
167 0 0 0 
171 0 0 0 
175 0 0 0 
179 0 0 0 
183 0 0 0 
187 -9.99122e-11 2.00812e-12 -1.78383e-10 
191 0 0 0 
4 0 0 0 
8 0 0 0 
12 0 0 0 
16 0 0 0 
20 0 0 0 
24 0 0 0 
28 0 0 0 
32 0 0 0 
36 0 0 0 
40 0 0 0 
44 0 0 0 
48 0 0 0 
52 0 0 0 
56 0 0 0 
60 0 0 0 
64 0 0 0 
68 0 0 0 
72 0 0 0 
76 1.84345e-10 -1.88832e-10 -3.232e-11 
80 1.66749e-10 -1.95157e-10 -1.42034e-10 
84 9.50836e-12 -2.03719e-10 1.50688e-10 
88 3.39135e-11 -1.59905e-10 -6.03164e-11 
92 0 0 0 
96 1.1028e-10 -2.67756e-10 -2.12176e-10 
100 0 0 0 
104 0 0 0 
108 0 0 0 
112 2.56479e-11 -3.79469e-11 -4.81253e-11 
116 0 0 0 
120 -1.23808e-10 -1.30217e-10 6.90697e-11 
124 0 0 0 
128 0 0 0 
132 0 0 0 
136 0 0 0 
140 0 0 0 
144 0 0 0 
148 1.05233e-10 2.71197e-10 -2.13476e-10 
152 5.21633e-11 2.22059e-11 -1.83297e-10 
156 0 0 0 
160 4.43337e-11 -6.21394e-11 -8.2136e-11 
164 0 0 0 
168 -6.90357e-11 1.53077e-11 -9.2624e-11 
172 0 0 0 
176 0 0 0 
180 0 0 0 
184 0 0 0 
188 0 0 0 
192 0 0 0 
ITEM: TIMESTEP
400
ITEM: NUMBER OF SURFS
192
ITEM: BOX BOUNDS oo rr rr
0 0.0005
0 0.0005
0 0.0005
ITEM: SURFS id f_f_drag_blocks[1] f_f_drag_blocks[2] f_f_drag_blocks[3] 
1 1.22827e-10 4.1785e-11 7.80548e-11 
5 2.35875e-10 1.09206e-10 5.65205e-11 
9 5.03001e-10 3.26163e-10 -1.7002e-10 
13 0 0 0 
17 1.00112e-09 2.5718e-10 6.1657e-10 
21 0 0 0 
25 5.29252e-10 6.4616e-11 -1.07486e-10 
29 1.88495e-10 -1.19168e-11 -3.99211e-11 
33 0 0 0 
37 4.50795e-10 -7.1285e-11 6.73548e-11 
41 6.99453e-10 -1.54754e-10 -5.64091e-11 
45 1.6181e-10 4.18057e-11 -1.39168e-10 
49 2.66441e-10 -9.87015e-11 2.11223e-10 
53 4.26019e-10 -2.55302e-10 5.10213e-11 
57 1.3256e-10 -1.36122e-10 -2.82121e-11 
61 0 0 0 
65 1.57159e-10 1.12533e-10 1.47484e-10 
69 0 0 0 
73 3.14651e-10 3.55952e-10 -1.92421e-12 
77 2.07667e-10 1.65436e-10 -1.10113e-10 
81 0 0 0 
85 0 0 0 
89 1.3612e-10 4.02123e-10 -2.8004e-11 
93 7.76733e-11 7.26416e-11 -6.0326e-11 
97 -5.90416e-11 2.24298e-10 2.13258e-10 
101 -6.33695e-12 9.67727e-11 5.63253e-11 
105 0 0 0 
109 2.30683e-11 4.16621e-10 -2.78103e-10 
113 0 0 0 
117 0 0 0 
121 0 0 0 
125 0 0 0 
129 1.31369e-10 6.59946e-11 4.0796e-12 
133 0 0 0 
137 2.7269e-10 -9.47898e-11 3.98775e-10 
141 4.07821e-11 -1.00858e-10 7.92638e-11 
145 0 0 0 
149 4.24188e-11 3.69354e-12 9.05242e-11 
153 0 0 0 
157 8.69432e-11 -9.85068e-11 7.78355e-11 
161 0 0 0 
165 0 0 0 
169 0 0 0 
173 1.14483e-12 -7.3505e-11 9.32836e-11 
177 0 0 0 
181 0 0 0 
185 0 0 0 
189 -9.96369e-11 -1.82237e-11 7.01917e-11 
2 1.25119e-10 4.62741e-11 2.85744e-11 
6 4.7357e-10 2.89298e-10 5.78477e-11 
10 2.63864e-10 2.08649e-10 -5.179e-11 
14 3.59459e-10 8.34299e-11 -1.42602e-10 
18 0 0 0 
22 3.57917e-10 1.02119e-10 1.26739e-10 
26 5.12672e-10 7.38024e-11 -1.5979e-10 
30 3.13691e-10 1.08026e-10 -2.45153e-10 
34 4.93571e-10 -2.20562e-10 3.39054e-10 
38 4.66038e-10 -6.99254e-11 2.61339e-11 
42 2.04755e-10 4.77603e-11 5.79178e-11 
46 2.25093e-10 -4.49269e-11 -1.57071e-10 
50 0 0 0 
54 2.76371e-10 -2.22278e-10 7.04413e-11 
58 8.68678e-11 -6.20552e-11 -5.01379e-11 
62 0 0 0 
66 0 0 0 
70 2.30523e-10 1.69506e-10 7.36299e-11 
74 1.84793e-10 1.57279e-10 -2.30685e-11 
78 2.04544e-11 1.48303e-10 2.74678e-11 
82 0 0 0 
86 1.19822e-11 6.37862e-11 2.65575e-11 
90 4.92911e-11 3.61115e-10 -1.81686e-11 
94 -5.23258e-12 1.08521e-10 -3.2824e-11 
98 0 0 0 
102 0 0 0 
106 0 0 0 
110 -2.04898e-11 8.53844e-11 -3.25945e-11 
114 0 0 0 
118 -4.98876e-11 1.13835e-10 5.62422e-11 
122 -1.00185e-10 1.52098e-10 -1.22541e-11 
126 0 0 0 
130 1.54801e-10 8.46344e-11 1.02643e-10 
134 1.47829e-10 1.06852e-10 2.13001e-10 
138 1.66394e-10 -4.13375e-11 1.89527e-10 
142 9.94058e-11 -1.46159e-10 1.12369e-10 
146 0 0 0 
150 8.44243e-11 1.19555e-10 5.92425e-10 
154 1.09486e-11 2.94425e-11 1.44013e-10 
158 -6.53321e-12 8.96954e-13 8.23176e-11 
162 3.14488e-11 2.73838e-11 5.20372e-11 
166 -4.00602e-11 2.16975e-11 8.00146e-11 
170 -1.37182e-11 -4.80811e-11 8.59334e-11 
174 0 0 0 
178 0 0 0 
182 0 0 0 
186 0 0 0 
190 0 0 0 
3 -1.26075e-10 3.39095e-11 1.30472e-10 
7 0 0 0 
11 -2.94532e-12 2.09155e-11 -2.03023e-11 
15 -1.30274e-10 5.14438e-12 -7.95315e-13 
19 0 0 0 
23 0 0 0 
27 0 0 0 
31 0 0 0 
35 0 0 0 
39 0 0 0 
43 0 0 0 
47 0 0 0 
51 0 0 0 
55 0 0 0 
59 0 0 0 
63 0 0 0 
67 0 0 0 
71 1.14079e-10 -6.46241e-11 5.40912e-11 
75 0 0 0 
79 1.89611e-10 -7.71045e-11 -1.04557e-10 
83 7.58281e-11 -2.0221e-10 1.73867e-10 
87 2.23799e-10 -7.16017e-10 1.2565e-10 
91 0 0 0 
95 0 0 0 
99 1.88286e-11 -2.22286e-10 1.04082e-10 
103 -1.04675e-10 -4.26398e-10 -1.06483e-11 
107 0 0 0 
111 0 0 0 
115 0 0 0 
119 -4.16674e-11 -6.10502e-11 -4.31805e-11 
123 0 0 0 
127 0 0 0 
131 0 0 0 
135 2.48002e-10 4.51043e-11 -2.86608e-10 
139 1.74377e-10 -1.0713e-10 -3.30794e-10 
143 1.07049e-10 -1.04946e-10 -1.49129e-10 
147 0 0 0 
151 0 0 0 
155 7.12137e-11 -5.17758e-11 -1.59285e-10 
159 0 0 0 
163 0 0 0 
167 0 0 0 
171 -9.35362e-11 -4.76448e-11 -1.78157e-10 
175 0 0 0 
179 0 0 0 
183 0 0 0 
187 0 0 0 
191 0 0 0 
4 -5.93579e-11 1.65846e-10 1.1063e-10 
8 0 0 0 
12 0 0 0 
16 0 0 0 
20 0 0 0 
24 0 0 0 
28 0 0 0 
32 0 0 0 
36 0 0 0 
40 0 0 0 
44 0 0 0 
48 0 0 0 
52 0 0 0 
56 -1.2675e-10 -3.72366e-11 3.9641e-12 
60 0 0 0 
64 -1.47154e-10 -9.89248e-11 -9.09546e-11 
68 2.06833e-10 -2.32117e-10 1.7687e-10 
72 0 0 0 
76 0 0 0 
80 0 0 0 
84 6.4271e-11 -1.03459e-10 8.40891e-11 
88 1.21412e-11 -8.76634e-11 4.37624e-11 
92 0 0 0 
96 1.45623e-10 -1.83608e-10 -1.4803e-10 
100 3.32598e-11 -7.91352e-11 1.01624e-10 
104 -4.3728e-11 -3.15293e-10 1.15147e-10 
108 0 0 0 
112 0 0 0 
116 0 0 0 
120 0 0 0 
124 0 0 0 
128 0 0 0 
132 0 0 0 
136 0 0 0 
140 3.22693e-10 -1.54722e-12 -3.84565e-10 
144 0 0 0 
148 1.74729e-10 2.40961e-10 -3.27596e-10 
152 7.32394e-11 4.84559e-11 -3.02675e-10 
156 0 0 0 
160 0 0 0 
164 -1.66199e-11 1.1448e-10 -1.3908e-10 
168 -1.83841e-11 2.85224e-11 -2.03568e-10 
172 0 0 0 
176 0 0 0 
180 0 0 0 
184 0 0 0 
188 0 0 0 
192 0 0 0 
ITEM: TIMESTEP
600
ITEM: NUMBER OF SURFS
192
ITEM: BOX BOUNDS oo rr rr
0 0.0005
0 0.0005
0 0.0005
ITEM: SURFS id f_f_drag_blocks[1] f_f_drag_blocks[2] f_f_drag_blocks[3] 
1 0 0 0 
5 2.19616e-10 8.86182e-11 -4.33002e-12 
9 1.1105e-10 1.64095e-10 3.56776e-11 
13 0 0 0 
17 4.16039e-10 8.52057e-11 3.43376e-10 
21 0 0 0 
25 6.59652e-10 6.81678e-11 -3.98221e-11 
29 4.79345e-10 3.55575e-11 -3.11041e-10 
33 1.82855e-10 -3.69876e-11 2.0695e-10 
37 5.48759e-10 -5.63077e-11 1.33561e-10 
41 5.88223e-10 -7.65432e-11 -1.7703e-10 
45 2.27746e-10 -3.16217e-11 -1.20477e-10 
49 0 0 0 
53 0 0 0 
57 0 0 0 
61 3.70717e-10 -2.6013e-10 -1.65509e-10 
65 4.65321e-11 1.59562e-10 7.40496e-11 
69 3.62981e-10 3.59608e-10 1.61753e-10 
73 0 0 0 
77 1.32735e-10 2.51167e-10 -9.35167e-11 
81 0 0 0 
85 -3.2789e-11 1.49735e-10 2.6176e-11 
89 5.85954e-11 1.08191e-10 -8.70612e-11 
93 -8.52672e-13 1.26423e-10 -1.15839e-10 
97 -4.37639e-11 2.76511e-10 2.35492e-10 
101 2.12681e-11 1.60896e-10 7.35253e-11 
105 0 0 0 
109 -1.11142e-10 1.2804e-10 -3.43515e-11 
113 0 0 0 
117 -1.94448e-10 2.24782e-10 -3.05681e-11 
121 0 0 0 
125 0 0 0 
129 0 0 0 
133 2.62395e-10 1.81294e-10 4.65124e-10 
137 0 0 0 
141 1.4063e-10 -1.37558e-10 1.6463e-10 
145 0 0 0 
149 4.77326e-11 1.3821e-10 2.7505e-10 
153 1.11341e-10 -1.1853e-10 2.52453e-10 
157 -9.96151e-11 -3.77301e-11 1.17101e-10 
161 0 0 0 
165 -1.60617e-11 7.08048e-11 2.541e-10 
169 -9.6057e-11 -4.04282e-11 2.07099e-10 
173 -2.27595e-11 -1.10535e-10 3.22791e-11 
177 0 0 0 
181 0 0 0 
185 0 0 0 
189 -3.30576e-11 -3.0456e-11 1.18447e-10 
2 4.29867e-10 2.87112e-10 2.16009e-10 
6 8.09697e-11 5.17565e-11 -3.60816e-11 
10 5.47774e-10 2.96472e-10 -7.93059e-11 
14 0 0 0 
18 3.34456e-10 4.88305e-11 2.10889e-10 
22 1.8682e-10 -1.12033e-11 6.85573e-11 
26 0 0 0 
30 9.84382e-10 1.39916e-10 -6.35304e-10 
34 0 0 0 
38 2.48786e-10 -4.70418e-12 8.59907e-11 
42 1.80679e-10 4.28796e-11 -2.77387e-11 
46 0 0 0 
50 1.49348e-10 -1.0878e-10 9.58381e-11 
54 2.16969e-10 -1.61307e-10 3.06254e-11 
58 7.35955e-10 -3.78322e-10 -8.2628e-11 
62 4.76658e-11 -4.39859e-11 -1.2263e-10 
66 0 0 0 
70 1.61019e-10 1.70207e-10 4.74868e-11 
74 6.49129e-11 9.87721e-11 2.03216e-11 
78 1.08996e-10 1.86602e-10 -1.02142e-10 
82 7.52435e-11 2.41162e-10 2.37818e-10 
86 6.14604e-11 1.78335e-10 6.00751e-11 
90 7.31277e-11 1.93703e-10 -7.27538e-11 
94 0 0 0 
98 -6.5827e-11 8.55879e-11 9.90805e-11 
102 0 0 0 
106 0 0 0 
110 0 0 0 
114 0 0 0 
118 0 0 0 
122 0 0 0 
126 0 0 0 
130 2.94744e-11 6.49947e-11 7.73474e-11 
134 1.32635e-10 4.33086e-11 9.69778e-11 
138 0 0 0 
142 2.29019e-10 -2.10239e-10 3.2825e-10 
146 5.98161e-11 -2.23717e-12 4.81351e-11 
150 8.66905e-11 3.08835e-11 1.16268e-10 
154 2.09213e-10 -9.01744e-11 2.91841e-10 
158 0 0 0 
162 -1.41148e-11 6.72863e-11 3.16722e-10 
166 -2.34666e-11 3.50459e-11 2.90654e-11 
170 -7.67263e-13 -1.32686e-11 1.49839e-10 
174 0 0 0 
178 0 0 0 
182 0 0 0 
186 0 0 0 
190 0 0 0 
3 0 0 0 
7 0 0 0 
11 0 0 0 
15 0 0 0 
19 0 0 0 
23 0 0 0 
27 0 0 0 
31 -1.11704e-10 2.25351e-11 -6.72411e-11 
35 0 0 0 
39 0 0 0 
43 0 0 0 
47 0 0 0 
51 0 0 0 
55 0 0 0 
59 0 0 0 
63 0 0 0 
67 1.98782e-10 -1.94672e-10 1.56451e-10 
71 5.34499e-10 -6.4852e-10 2.12189e-10 
75 9.21019e-11 -2.35581e-10 -4.05806e-11 
79 1.16189e-10 -1.091e-10 -9.44119e-11 
83 5.49213e-11 -5.40851e-11 1.40498e-10 
87 6.09301e-11 -2.71854e-10 1.06434e-10 
91 5.3441e-11 -9.51352e-11 -3.82268e-11 
95 0 0 0 
99 -6.52996e-11 -2.07648e-10 9.81867e-11 
103 -6.22791e-11 -1.18406e-10 2.15553e-11 
107 -7.88805e-11 -8.55143e-11 -4.27615e-11 
111 0 0 0 
115 0 0 0 
119 0 0 0 
123 0 0 0 
127 0 0 0 
131 9.96065e-11 1.67352e-10 -1.36197e-10 
135 0 0 0 
139 0 0 0 
143 1.79503e-10 -1.18407e-10 -2.34926e-10 
147 1.04608e-10 3.38829e-10 -5.71535e-10 
151 4.55641e-11 -2.97958e-12 -5.89063e-11 
155 2.25406e-10 -1.50749e-10 -2.47994e-10 
159 0 0 0 
163 0 0 0 
167 -2.7715e-11 5.86825e-11 -5.38818e-11 
171 0 0 0 
175 0 0 0 
179 0 0 0 
183 0 0 0 
187 0 0 0 
191 0 0 0 
4 0 0 0 
8 0 0 0 
12 0 0 0 
16 0 0 0 
20 0 0 0 
24 0 0 0 
28 0 0 0 
32 0 0 0 
36 0 0 0 
40 0 0 0 
44 0 0 0 
48 0 0 0 
52 0 0 0 
56 0 0 0 
60 0 0 0 
64 0 0 0 
68 4.55038e-10 -5.06511e-10 3.5255e-10 
72 0 0 0 
76 4.01503e-10 -4.13498e-10 -1.52961e-10 
80 1.58603e-10 -2.75541e-10 -2.19339e-10 
84 0 0 0 
88 1.17083e-10 -4.33599e-10 8.62688e-11 
92 0 0 0 
96 0 0 0 
100 -1.60306e-11 -1.24914e-10 3.93674e-11 
104 -1.03765e-10 -3.00891e-10 5.10431e-11 
108 0 0 0 
112 0 0 0 
116 0 0 0 
120 0 0 0 
124 -1.71528e-11 -7.98707e-11 2.66677e-11 
128 0 0 0 
132 0 0 0 
136 1.13433e-10 1.55955e-11 -1.54413e-10 
140 0 0 0 
144 0 0 0 
148 0 0 0 
152 -1.99343e-12 7.49048e-11 -6.98582e-11 
156 -1.39322e-11 -8.31229e-11 -1.28112e-10 
160 0 0 0 
164 0 0 0 
168 -8.05881e-11 6.86557e-11 -3.60757e-10 
172 9.59347e-12 -1.48098e-10 -2.26929e-10 
176 0 0 0 
180 0 0 0 
184 0 0 0 
188 0 0 0 
192 0 0 0 
ITEM: TIMESTEP
800
ITEM: NUMBER OF SURFS
192
ITEM: BOX BOUNDS oo rr rr
0 0.0005
0 0.0005
0 0.0005
ITEM: SURFS id f_f_drag_blocks[1] f_f_drag_blocks[2] f_f_drag_blocks[3] 
1 0 0 0 
5 1.36818e-10 1.53476e-10 7.33948e-11 
9 2.99129e-10 3.34466e-10 -1.05004e-11 
13 0 0 0 
17 1.46387e-10 -2.20527e-12 1.56669e-10 
21 3.86826e-10 1.34376e-10 2.06373e-10 
25 5.21498e-10 1.09538e-10 -1.04888e-10 
29 6.41654e-11 -4.63418e-11 -8.93409e-12 
33 0 0 0 
37 1.46739e-09 -3.38021e-10 3.14209e-10 
41 6.95158e-10 -1.41729e-10 -8.17692e-11 
45 0 0 0 
49 0 0 0 
53 2.24144e-10 -8.24303e-11 1.04131e-10 
57 0 0 0 
61 1.87419e-10 -7.48916e-11 -6.97235e-11 
65 5.57727e-11 1.62221e-10 1.07981e-10 
69 2.4621e-10 4.05409e-10 2.04464e-10 
73 2.50472e-10 3.62226e-10 -7.82334e-11 
77 0 0 0 
81 0 0 0 
85 2.32942e-11 4.92258e-10 1.53892e-10 
89 1.27315e-11 5.08593e-11 2.64669e-11 
93 0 0 0 
97 0 0 0 
101 0 0 0 
105 5.45115e-12 1.35182e-10 2.99e-11 
109 0 0 0 
113 0 0 0 
117 -2.94192e-11 8.08058e-11 6.79955e-11 
121 0 0 0 
125 0 0 0 
129 0 0 0 
133 2.95899e-11 6.64645e-11 1.29747e-10 
137 0 0 0 
141 1.5678e-10 -8.67831e-11 1.0361e-10 
145 0 0 0 
149 3.68984e-11 5.28397e-11 4.27485e-10 
153 0 0 0 
157 1.19889e-10 -2.36788e-10 1.80008e-10 
161 0 0 0 
165 0 0 0 
169 1.4154e-11 -1.39163e-11 2.01678e-10 
173 0 0 0 
177 0 0 0 
181 0 0 0 
185 -9.14687e-11 3.28432e-11 1.40768e-10 
189 0 0 0 
2 1.13047e-10 4.61282e-11 5.70529e-11 
6 2.2323e-10 9.94311e-11 3.03127e-11 
10 0 0 0 
14 3.50445e-10 1.39263e-10 -2.33903e-10 
18 0 0 0 
22 7.01078e-10 1.69797e-10 1.64246e-10 
26 1.25654e-09 3.59405e-10 -2.37526e-10 
30 1.45674e-10 5.13326e-11 -8.06635e-11 
34 0 0 0 
38 4.5647e-10 -1.27177e-10 6.67501e-11 
42 4.40572e-10 -1.15522e-10 -3.98042e-11 
46 1.32999e-10 -3.12145e-11 4.66292e-12 
50 1.02954e-10 -1.57763e-10 9.15229e-11 
54 3.68959e-10 -2.00224e-10 1.96116e-12 
58 0 0 0 
62 1.91144e-10 -3.94658e-11 -1.14507e-10 
66 0 0 0 
70 5.36914e-11 8.42978e-11 7.36908e-11 
74 1.55655e-10 2.56276e-10 -4.72624e-11 
78 5.49413e-11 1.43741e-10 -1.09878e-10 
82 9.99897e-11 1.57909e-10 1.21452e-10 
86 3.35566e-11 1.42481e-10 -2.27372e-11 
90 1.84087e-10 6.29073e-10 -1.11877e-10 
94 0 0 0 
98 0 0 0 
102 0 0 0 
106 9.81449e-12 8.99799e-11 -3.78196e-11 
110 0 0 0 
114 3.0541e-11 1.17915e-10 5.47944e-11 
118 0 0 0 
122 0 0 0 
126 -8.4289e-11 1.09267e-10 -4.89363e-11 
130 1.04783e-10 7.43407e-11 4.58468e-11 
134 1.74372e-10 9.51541e-11 1.71784e-10 
138 0 0 0 
142 0 0 0 
146 3.62787e-11 1.75379e-11 1.22859e-10 
150 2.28612e-11 6.87367e-11 2.31034e-10 
154 1.83354e-10 -3.1174e-11 3.26182e-10 
158 3.30329e-11 -1.92528e-10 3.54938e-10 
162 0 0 0 
166 -1.29393e-10 3.21694e-11 1.78108e-10 
170 5.34306e-11 -7.73507e-11 7.21379e-11 
174 0 0 0 
178 0 0 0 
182 0 0 0 
186 0 0 0 
190 -4.51804e-11 -6.11645e-11 7.37313e-11 
3 0 0 0 
7 0 0 0 
11 0 0 0 
15 -9.80178e-11 3.35164e-11 3.11919e-12 
19 0 0 0 
23 0 0 0 
27 0 0 0 
31 0 0 0 
35 0 0 0 
39 0 0 0 
43 0 0 0 
47 0 0 0 
51 0 0 0 
55 0 0 0 
59 0 0 0 
63 0 0 0 
67 0 0 0 
71 0 0 0 
75 1.42062e-10 -2.7895e-10 -4.81464e-11 
79 0 0 0 
83 0 0 0 
87 0 0 0 
91 1.29488e-10 -4.34455e-10 -1.5367e-10 
95 6.10916e-11 -1.31118e-10 -1.54257e-10 
99 0 0 0 
103 -7.68599e-11 -1.16631e-10 -2.75629e-11 
107 0 0 0 
111 0 0 0 
115 0 0 0 
119 0 0 0 
123 0 0 0 
127 0 0 0 
131 1.21705e-10 1.38327e-10 -2.60007e-10 
135 0 0 0 
139 0 0 0 
143 0 0 0 
147 2.9894e-11 5.45059e-11 -1.61836e-10 
151 0 0 0 
155 2.51297e-11 -1.67572e-11 -9.08601e-11 
159 0 0 0 
163 0 0 0 
167 0 0 0 
171 -4.34325e-11 -5.02575e-11 -7.37583e-11 
175 0 0 0 
179 0 0 0 
183 0 0 0 
187 0 0 0 
191 0 0 0 
4 0 0 0 
8 0 0 0 
12 0 0 0 
16 0 0 0 
20 0 0 0 
24 0 0 0 
28 0 0 0 
32 0 0 0 
36 0 0 0 
40 0 0 0 
44 0 0 0 
48 0 0 0 
52 0 0 0 
56 0 0 0 
60 -7.67847e-11 -8.8342e-11 -1.05598e-11 
64 0 0 0 
68 0 0 0 
72 0 0 0 
76 4.26434e-10 -5.73511e-10 -2.33349e-10 
80 0 0 0 
84 0 0 0 
88 0 0 0 
92 -7.16895e-12 -9.07484e-11 -4.81016e-12 
96 6.61451e-11 -4.81052e-10 -2.323e-10 
100 0 0 0 
104 -3.74682e-11 -1.06027e-10 2.6946e-12 
108 0 0 0 
112 1.49632e-11 -9.35672e-11 -3.215e-11 
116 0 0 0 
120 0 0 0 
124 0 0 0 
128 -6.02879e-11 -1.68851e-10 -9.87757e-11 
132 0 0 0 
136 1.74121e-10 1.00387e-10 -2.34054e-10 
140 1.1309e-10 -8.16364e-12 -1.46993e-10 
144 1.69012e-10 -2.20991e-10 -2.1578e-10 
148 0 0 0 
152 3.35089e-11 2.67981e-11 -8.33079e-11 
156 0 0 0 
160 2.8255e-11 -6.69738e-11 -9.09798e-11 
164 0 0 0 
168 -9.46677e-11 5.37292e-11 -2.94663e-10 
172 -4.8448e-11 -3.53332e-11 -1.2033e-10 
176 0 0 0 
180 0 0 0 
184 0 0 0 
188 0 0 0 
192 0 0 0 
ITEM: TIMESTEP
1000
ITEM: NUMBER OF SURFS
192
ITEM: BOX BOUNDS oo rr rr
0 0.0005
0 0.0005
0 0.0005
ITEM: SURFS id f_f_drag_blocks[1] f_f_drag_blocks[2] f_f_drag_blocks[3] 
1 3.37119e-10 1.10531e-10 3.53181e-10 
5 6.90688e-10 4.65609e-10 1.32866e-10 
9 0 0 0 
13 0 0 0 
17 1.63306e-10 3.12637e-11 1.21861e-10 
21 5.65105e-10 1.27999e-10 2.23262e-10 
25 9.17092e-10 2.14612e-10 -1.89336e-10 
29 0 0 0 
33 0 0 0 
37 6.44337e-10 -1.27931e-10 1.27197e-10 
41 0 0 0 
45 2.89527e-10 -9.9651e-11 -1.72736e-10 
49 1.4406e-10 -1.18081e-10 7.54531e-11 
53 2.34978e-10 -1.28793e-10 1.54223e-10 
57 2.20182e-10 -2.02238e-10 -6.74525e-11 
61 0 0 0 
65 0 0 0 
69 2.66483e-10 3.06493e-10 4.97344e-11 
73 1.44549e-10 1.38532e-10 5.44185e-11 
77 2.41897e-10 2.3052e-10 -3.14017e-10 
81 0 0 0 
85 -3.63941e-11 3.57609e-10 8.06636e-11 
89 2.09555e-10 7.23296e-10 -1.96332e-10 
93 1.42374e-10 2.38338e-10 -2.80201e-10 
97 0 0 0 
101 0 0 0 
105 0 0 0 
109 -5.30829e-11 2.07895e-10 -6.36372e-11 
113 0 0 0 
117 0 0 0 
121 0 0 0 
125 0 0 0 
129 0 0 0 
133 1.22169e-10 5.39622e-11 1.80204e-10 
137 8.64088e-11 3.71741e-11 1.33842e-10 
141 0 0 0 
145 7.87809e-11 1.9271e-10 2.36165e-10 
149 0 0 0 
153 9.05623e-11 -7.50581e-11 3.30268e-10 
157 0 0 0 
161 0 0 0 
165 0 0 0 
169 6.77139e-11 -3.10506e-11 1.11015e-10 
173 0 0 0 
177 0 0 0 
181 0 0 0 
185 0 0 0 
189 0 0 0 
2 2.39603e-10 2.66837e-10 1.88753e-10 
6 1.99087e-10 1.2851e-10 7.74745e-13 
10 0 0 0 
14 4.82169e-11 8.08947e-11 -3.95304e-11 
18 2.36195e-10 8.77887e-11 1.07904e-10 
22 2.74128e-10 4.72467e-11 5.0355e-11 
26 7.65608e-10 1.7513e-10 -2.32073e-10 
30 0 0 0 
34 1.2406e-10 -8.62815e-12 1.05867e-10 
38 5.93149e-11 -1.86353e-11 -3.18275e-11 
42 6.85988e-10 -1.52078e-10 -2.49679e-10 
46 1.74138e-10 -1.02235e-10 -2.18085e-10 
50 1.95171e-10 -1.01559e-10 1.03986e-10 
54 7.15577e-11 -8.21808e-11 -2.27369e-11 
58 0 0 0 
62 0 0 0 
66 1.03973e-10 6.88091e-11 8.87264e-11 
70 3.91967e-10 5.7529e-10 1.74559e-10 
74 9.66981e-11 7.84211e-11 3.6444e-11 
78 2.58009e-10 4.13229e-10 -1.66196e-10 
82 2.13726e-11 1.82765e-10 1.31458e-10 
86 3.10871e-11 9.82285e-11 4.81283e-11 
90 0 0 0 
94 0 0 0 
98 -4.46735e-11 1.96593e-10 1.38718e-10 
102 0 0 0 
106 -4.10398e-12 8.93522e-11 6.09715e-11 
110 -6.9996e-11 3.42004e-10 -2.70122e-10 
114 0 0 0 
118 0 0 0 
122 0 0 0 
126 0 0 0 
130 0 0 0 
134 1.37356e-10 3.0128e-11 1.44414e-10 
138 0 0 0 
142 0 0 0 
146 5.35187e-11 1.12442e-11 2.01574e-10 
150 1.72379e-11 3.92455e-11 2.01162e-10 
154 1.48823e-10 -6.26664e-11 3.11357e-10 
158 0 0 0 
162 0 0 0 
166 0 0 0 
170 0 0 0 
174 2.12243e-12 -9.30466e-11 1.83945e-10 
178 0 0 0 
182 0 0 0 
186 0 0 0 
190 0 0 0 
3 0 0 0 
7 0 0 0 
11 0 0 0 
15 0 0 0 
19 0 0 0 
23 0 0 0 
27 0 0 0 
31 0 0 0 
35 0 0 0 
39 0 0 0 
43 0 0 0 
47 0 0 0 
51 0 0 0 
55 -7.5531e-11 -2.50607e-11 -5.24778e-12 
59 0 0 0 
63 -5.51814e-11 -8.61704e-11 -1.99343e-11 
67 1.5935e-10 -1.65003e-10 8.52602e-11 
71 9.26711e-11 -1.55843e-10 9.27665e-11 
75 3.89371e-10 -5.27119e-10 -6.70996e-11 
79 0 0 0 
83 1.29849e-11 -1.97229e-10 1.43136e-10 
87 3.64545e-13 -9.00245e-11 -2.25064e-11 
91 0 0 0 
95 9.30393e-11 -3.25095e-10 -2.94674e-10 
99 0 0 0 
103 -5.11609e-11 -1.649e-10 2.58923e-11 
107 4.82374e-11 -5.25372e-11 -1.89792e-11 
111 5.5989e-11 -1.09262e-10 -1.07931e-10 
115 0 0 0 
119 0 0 0 
123 0 0 0 
127 0 0 0 
131 0 0 0 
135 2.03792e-10 1.75067e-10 -2.71762e-10 
139 1.92779e-10 -2.53355e-11 -1.83154e-10 
143 0 0 0 
147 -4.41751e-11 7.70762e-11 -5.87387e-11 
151 1.20831e-10 7.05047e-11 -2.45705e-10 
155 1.59454e-11 -4.44489e-11 -1.05021e-10 
159 6.91466e-11 -1.34602e-10 -1.82364e-10 
163 0 0 0 
167 0 0 0 
171 -7.13523e-11 -9.82009e-11 -1.06548e-10 
175 0 0 0 
179 0 0 0 
183 0 0 0 
187 0 0 0 
191 0 0 0 
4 0 0 0 
8 0 0 0 
12 0 0 0 
16 0 0 0 
20 0 0 0 
24 0 0 0 
28 0 0 0 
32 0 0 0 
36 0 0 0 
40 0 0 0 
44 0 0 0 
48 0 0 0 
52 0 0 0 
56 0 0 0 
60 -7.92673e-11 -1.77516e-10 6.63908e-11 
64 0 0 0 
68 1.05411e-10 -8.94771e-11 8.02911e-11 
72 1.19265e-10 -8.94051e-11 5.83063e-11 
76 1.51352e-10 -2.90904e-10 2.74147e-11 
80 1.71148e-10 -2.21398e-10 -1.45705e-10 
84 0 0 0 
88 4.81044e-11 -1.88786e-10 3.37614e-11 
92 2.64256e-11 -1.8712e-10 -5.06261e-12 
96 0 0 0 
100 0 0 0 
104 0 0 0 
108 0 0 0 
112 0 0 0 
116 0 0 0 
120 0 0 0 
124 0 0 0 
128 0 0 0 
132 0 0 0 
136 1.04906e-10 7.19769e-11 -1.05014e-10 
140 1.89696e-10 -7.84692e-11 -3.28538e-10 
144 0 0 0 
148 -2.78445e-11 3.73718e-11 -1.05605e-10 
152 1.01823e-10 4.24309e-11 -1.77693e-10 
156 2.76058e-10 -2.41789e-10 -9.80544e-10 
160 0 0 0 
164 -6.9588e-11 3.63704e-11 -1.51665e-10 
168 0 0 0 
172 0 0 0 
176 0 0 0 
180 0 0 0 
184 0 0 0 
188 0 0 0 
192 0 0 0 
ITEM: TIMESTEP
1200
ITEM: NUMBER OF SURFS
192
ITEM: BOX BOUNDS oo rr rr
0 0.0005
0 0.0005
0 0.0005
ITEM: SURFS id f_f_drag_blocks[1] f_f_drag_blocks[2] f_f_drag_blocks[3] 
1 0 0 0 
5 1.8446e-10 6.99424e-11 4.73069e-11 
9 0 0 0 
13 3.25667e-11 -8.37913e-12 -1.17433e-10 
17 2.58671e-10 3.73298e-11 1.72555e-10 
21 1.29554e-09 3.20108e-10 2.78182e-10 
25 1.99548e-10 7.03743e-11 -3.37691e-11 
29 5.74624e-10 1.81949e-10 -4.09237e-10 
33 1.62181e-10 -1.15846e-11 1.00081e-10 
37 4.96064e-10 -1.41297e-10 1.75937e-10 
41 9.22781e-10 -1.12701e-10 -2.613e-10 
45 4.51965e-10 -8.99194e-11 -2.71645e-10 
49 7.3418e-11 -6.39179e-11 9.71882e-11 
53 3.05839e-10 -1.63908e-10 7.99376e-11 
57 2.73203e-10 -1.27195e-10 -3.78637e-11 
61 2.10166e-10 -1.82987e-10 -1.26728e-10 
65 5.51206e-11 6.09427e-11 1.03428e-11 
69 4.59522e-11 1.91107e-10 7.95918e-11 
73 2.12359e-10 1.55058e-10 -8.6641e-11 
77 0 0 0 
81 8.68022e-11 4.54023e-10 3.38977e-10 
85 1.35236e-10 4.83273e-10 8.3155e-11 
89 3.23716e-11 1.35917e-10 -4.97992e-11 
93 0 0 0 
97 -1.45274e-11 8.03314e-11 4.53355e-11 
101 1.45279e-11 1.10216e-10 4.2312e-11 
105 0 0 0 
109 -3.25379e-11 1.42793e-10 -3.51822e-11 
113 -6.01721e-11 1.58684e-10 7.90803e-11 
117 0 0 0 
121 0 0 0 
125 0 0 0 
129 8.59464e-11 7.3117e-11 1.38297e-10 
133 0 0 0 
137 0 0 0 
141 1.4778e-11 -9.00663e-12 6.87008e-11 
145 4.55661e-11 9.45202e-11 2.3209e-10 
149 -7.80056e-13 1.26864e-10 2.48559e-10 
153 1.0423e-10 -5.6913e-11 3.73744e-10 
157 0 0 0 
161 0 0 0 
165 0 0 0 
169 -1.69524e-11 -2.23004e-11 6.01545e-11 
173 0 0 0 
177 0 0 0 
181 0 0 0 
185 0 0 0 
189 0 0 0 
2 1.07554e-10 2.18405e-11 3.44411e-12 
6 3.02523e-10 2.52108e-10 1.22151e-10 
10 4.97528e-10 3.2367e-10 -1.28911e-10 
14 1.97293e-10 2.45646e-10 -7.82052e-11 
18 0 0 0 
22 1.905e-10 -1.24518e-11 2.45352e-11 
26 7.26815e-10 2.008e-10 -1.77183e-10 
30 9.75817e-10 2.72525e-10 -7.03633e-10 
34 0 0 0 
38 2.01143e-10 -1.14365e-10 1.19512e-10 
42 1.29574e-10 -4.24581e-11 -5.77334e-11 
46 0 0 0 
50 0 0 0 
54 0 0 0 
58 2.81023e-10 -2.72637e-10 -2.53478e-11 
62 0 0 0 
66 0 0 0 
70 0 0 0 
74 0 0 0 
78 1.39098e-10 3.13139e-10 -2.03376e-10 
82 0 0 0 
86 1.54835e-10 3.60537e-10 9.87152e-11 
90 0 0 0 
94 0 0 0 
98 -9.2886e-11 2.63287e-10 1.78528e-10 
102 0 0 0 
106 -4.08203e-11 3.26053e-10 -8.01169e-11 
110 0 0 0 
114 -7.17603e-11 6.72629e-11 7.58934e-11 
118 0 0 0 
122 0 0 0 
126 9.48503e-12 1.75092e-10 -1.06133e-10 
130 0 0 0 
134 0 0 0 
138 0 0 0 
142 3.46132e-11 -4.83774e-11 4.08051e-11 
146 -2.36801e-12 7.4634e-11 6.1153e-11 
150 4.74359e-11 6.18445e-11 1.91993e-10 
154 5.94229e-11 -2.51272e-11 1.40547e-10 
158 0 0 0 
162 0 0 0 
166 -4.58305e-11 3.14203e-11 2.11121e-10 
170 3.93673e-11 1.41798e-11 1.5473e-10 
174 0 0 0 
178 0 0 0 
182 0 0 0 
186 0 0 0 
190 0 0 0 
3 0 0 0 
7 0 0 0 
11 0 0 0 
15 0 0 0 
19 0 0 0 
23 0 0 0 
27 0 0 0 
31 0 0 0 
35 0 0 0 
39 0 0 0 
43 0 0 0 
47 0 0 0 
51 -9.76752e-11 -1.77105e-11 3.58553e-11 
55 -1.25758e-10 -7.55429e-11 -2.37627e-11 
59 0 0 0 
63 0 0 0 
67 0 0 0 
71 1.93189e-10 -2.607e-10 1.1348e-10 
75 0 0 0 
79 2.45257e-10 -2.87229e-10 -2.24741e-10 
83 0 0 0 
87 1.77465e-10 -7.15237e-10 1.22608e-10 
91 9.80659e-11 -3.04178e-10 -5.19628e-11 
95 1.18242e-10 -2.36581e-10 -2.25978e-10 
99 -2.52387e-11 -8.04397e-11 5.43904e-11 
103 0 0 0 
107 0 0 0 
111 0 0 0 
115 -1.03377e-10 -2.13675e-10 1.04799e-10 
119 0 0 0 
123 -3.54189e-11 -1.20417e-11 -4.66546e-11 
127 0 0 0 
131 1.02183e-10 1.73305e-10 -2.73813e-10 
135 0 0 0 
139 9.37991e-11 -7.9036e-11 -9.751e-11 
143 2.07188e-10 -1.83311e-10 -1.44095e-10 
147 0 0 0 
151 1.05892e-10 1.0706e-10 -3.30073e-10 
155 1.78943e-10 -1.7509e-10 -5.70025e-10 
159 0 0 0 
163 0 0 0 
167 -3.56112e-11 2.83812e-11 -1.60792e-10 
171 1.10657e-11 4.11079e-11 -9.3216e-11 
175 -8.71369e-13 -6.63312e-11 -7.71652e-11 
179 0 0 0 
183 0 0 0 
187 0 0 0 
191 0 0 0 
4 0 0 0 
8 0 0 0 
12 0 0 0 
16 0 0 0 
20 0 0 0 
24 0 0 0 
28 0 0 0 
32 0 0 0 
36 0 0 0 
40 0 0 0 
44 0 0 0 
48 0 0 0 
52 0 0 0 
56 0 0 0 
60 0 0 0 
64 0 0 0 
68 0 0 0 
72 0 0 0 
76 0 0 0 
80 0 0 0 
84 8.89769e-12 -3.67805e-11 6.85809e-11 
88 6.62959e-11 -1.32634e-10 1.23531e-10 
92 0 0 0 
96 -3.29416e-11 -9.42565e-11 -8.52908e-11 
100 0 0 0 
104 -3.21132e-11 -1.80923e-10 5.92992e-11 