ITEM: TIMESTEP
100000
ITEM: NUMBER OF SURFS
192
ITEM: BOX BOUNDS oo rr rr
0 5e-06
0 5e-06
0 5e-06
ITEM: SURFS id f_f_drag_cumul[1] f_f_drag_cumul[2] f_f_drag_cumul[3] 
1 0 0 0 
5 0 0 0 
9 0 0 0 
13 0 0 0 
17 0 0 0 
21 0 0 0 
25 0 0 0 
29 0 0 0 
33 0 0 0 
37 0 0 0 
41 0 0 0 
45 0 0 0 
49 0 0 0 
53 0 0 0 
57 0 0 0 
61 0 0 0 
65 0 0 0 
69 0 0 0 
73 0 0 0 
77 0 0 0 
81 0 0 0 
85 0 0 0 
89 0 0 0 
93 0 0 0 
97 0 0 0 
101 0 0 0 
105 0 0 0 
109 0 0 0 
113 0 0 0 
117 0 0 0 
121 0 0 0 
125 0 0 0 
129 0 0 0 
133 0 0 0 
137 0 0 0 
141 0 0 0 
145 0 0 0 
149 0 0 0 
153 0 0 0 
157 0 0 0 
161 0 0 0 
165 0 0 0 
169 0 0 0 
173 0 0 0 
177 0 0 0 
181 0 0 0 
185 0 0 0 
189 0 0 0 
2 0 0 0 
6 0 0 0 
10 0 0 0 
14 0 0 0 
18 0 0 0 
22 0 0 0 
26 0 0 0 
30 0 0 0 
34 0 0 0 
38 0 0 0 
42 0 0 0 
46 0 0 0 
50 0 0 0 
54 0 0 0 
58 0 0 0 
62 0 0 0 
66 0 0 0 
70 0 0 0 
74 0 0 0 
78 0 0 0 
82 0 0 0 
86 0 0 0 
90 0 0 0 
94 0 0 0 
98 0 0 0 
102 0 0 0 
106 0 0 0 
110 0 0 0 
114 0 0 0 
118 0 0 0 
122 0 0 0 
126 0 0 0 
130 0 0 0 
134 0 0 0 
138 0 0 0 
142 0 0 0 
146 0 0 0 
150 0 0 0 
154 0 0 0 
158 0 0 0 
162 0 0 0 
166 0 0 0 
170 0 0 0 
174 0 0 0 
178 0 0 0 
182 0 0 0 
186 0 0 0 
190 0 0 0 
3 0 0 0 
7 0 0 0 
11 0 0 0 
15 0 0 0 
19 0 0 0 
23 0 0 0 
27 0 0 0 
31 0 0 0 
35 0 0 0 
39 0 0 0 
43 0 0 0 
47 0 0 0 
51 0 0 0 
55 0 0 0 
59 0 0 0 
63 0 0 0 
67 0 0 0 
71 0 0 0 
75 0 0 0 
79 0 0 0 
83 0 0 0 
87 0 0 0 
91 0 0 0 
95 0 0 0 
99 0 0 0 
103 0 0 0 
107 0 0 0 
111 0 0 0 
115 0 0 0 
119 0 0 0 
123 0 0 0 
127 0 0 0 
131 0 0 0 
135 0 0 0 
139 0 0 0 
143 0 0 0 
147 0 0 0 
151 0 0 0 
155 0 0 0 
159 0 0 0 
163 0 0 0 
167 0 0 0 
171 0 0 0 
175 0 0 0 
179 0 0 0 
183 0 0 0 
187 0 0 0 
191 0 0 0 
4 0 0 0 
8 0 0 0 
12 0 0 0 
16 0 0 0 
20 0 0 0 
24 0 0 0 
28 0 0 0 
32 0 0 0 
36 0 0 0 
40 0 0 0 
44 0 0 0 
48 0 0 0 
52 0 0 0 
56 0 0 0 
60 0 0 0 
64 0 0 0 
68 0 0 0 
72 0 0 0 
76 0 0 0 
80 0 0 0 
84 0 0 0 
88 0 0 0 
92 0 0 0 
96 0 0 0 
100 0 0 0 
104 0 0 0 
108 0 0 0 
112 0 0 0 
116 0 0 0 
120 0 0 0 
124 0 0 0 
128 0 0 0 
132 0 0 0 
136 0 0 0 
140 0 0 0 
144 0 0 0 
148 0 0 0 
152 0 0 0 
156 0 0 0 
160 0 0 0 
164 0 0 0 
168 0 0 0 
172 0 0 0 
176 0 0 0 
180 0 0 0 
184 0 0 0 
188 0 0 0 
192 0 0 0 
ITEM: TIMESTEP
150000
ITEM: NUMBER OF SURFS
192
ITEM: BOX BOUNDS oo rr rr
0 5e-06
0 5e-06
0 5e-06
ITEM: SURFS id f_f_drag_cumul[1] f_f_drag_cumul[2] f_f_drag_cumul[3] 
1 2.20836e-14 1.34998e-14 1.58895e-14 
5 2.54261e-14 1.54326e-14 5.97168e-15 
9 2.4007e-14 1.64834e-14 -5.94182e-15 
13 1.43801e-14 1.11045e-14 -1.0969e-14 
17 2.62947e-14 5.1806e-15 1.77183e-14 
21 5.18749e-14 1.04825e-14 1.14552e-14 
25 5.53378e-14 1.26855e-14 -1.2924e-14 
29 2.61735e-14 6.6275e-15 -1.80123e-14 
33 2.78371e-14 -4.97916e-15 1.69273e-14 
37 4.70971e-14 -9.10498e-15 9.2207e-15 
41 4.89183e-14 -1.1116e-14 -1.0067e-14 
45 2.6631e-14 -6.4204e-15 -1.63986e-14 
49 3.96839e-14 -2.14658e-14 2.18212e-14 
53 2.99304e-14 -1.78491e-14 5.35816e-15 
57 2.7733e-14 -1.84883e-14 -5.44823e-15 
61 2.2857e-14 -1.66283e-14 -1.40789e-14 
65 1.12056e-14 1.57887e-14 1.23699e-14 
69 1.29221e-14 1.80297e-14 4.54925e-15 
73 1.36224e-14 1.76533e-14 -4.52214e-15 
77 1.0771e-14 1.19356e-14 -9.77447e-15 
81 3.57207e-15 1.24716e-14 8.85174e-15 
85 6.41139e-15 2.28195e-14 5.21451e-15 
89 7.74591e-15 2.55689e-14 -6.04423e-15 
93 4.26663e-15 1.31287e-14 -9.48194e-15 
97 -6.67433e-16 8.3105e-15 5.18354e-15 
101 -1.38801e-15 1.10422e-14 2.33381e-15 
105 -1.40387e-15 1.0763e-14 -2.38905e-15 
109 -9.30358e-16 7.13081e-15 -4.47391e-15 
113 -2.50183e-15 5.66223e-15 3.28733e-15 
117 -1.79912e-15 3.68851e-15 7.20308e-16 
121 -1.42236e-15 2.92797e-15 -6.73497e-16 
125 -1.69931e-15 2.88023e-15 -1.88566e-15 
129 1.11696e-14 1.17506e-14 1.58142e-14 
133 1.30961e-14 4.58325e-15 1.82993e-14 
137 1.30535e-14 -4.32207e-15 1.68453e-14 
141 1.09208e-14 -1.00755e-14 1.19078e-14 
145 3.45249e-15 8.4837e-15 1.18502e-14 
149 6.06722e-15 5.19082e-15 2.16997e-14 
153 8.00522e-15 -6.1365e-15 2.64159e-14 
157 4.20428e-15 -8.65109e-15 1.22261e-14 
161 -6.67019e-16 5.44372e-15 8.733e-15 
165 -1.28505e-15 2.23598e-15 1.1322e-14 
169 -1.68623e-15 -2.20044e-15 1.09372e-14 
173 -9.21114e-16 -4.53169e-15 6.99158e-15 
177 -2.44108e-15 3.06351e-15 5.69479e-15 
181 -1.80925e-15 7.62479e-16 3.75802e-15 
185 -1.62682e-15 -6.48358e-16 2.92472e-15 
189 -1.6477e-15 -1.73259e-15 2.84559e-15 
2 2.20118e-14 1.60744e-14 1.3475e-14 
6 2.76996e-14 1.89652e-14 5.4251e-15 
10 2.9343e-14 1.77709e-14 -5.25896e-15 
14 4.03377e-14 2.18374e-14 -2.16504e-14 
18 2.50345e-14 5.96998e-15 1.55313e-14 
22 5.22605e-14 1.16124e-14 1.08326e-14 
26 4.76929e-14 9.61978e-15 -9.71507e-15 
30 3.05387e-14 5.62425e-15 -1.82161e-14 
34 2.37066e-14 -5.96829e-15 1.6075e-14 
38 5.63807e-14 -1.3017e-14 1.304e-14 
42 5.02437e-14 -1.03753e-14 -1.11933e-14 
46 2.72522e-14 -5.34825e-15 -1.82113e-14 
50 1.43397e-14 -1.10753e-14 1.0884e-14 
54 2.54756e-14 -1.72372e-14 6.20214e-15 
58 2.74017e-14 -1.6943e-14 -6.21788e-15 
62 2.18998e-14 -1.32814e-14 -1.55236e-14 
66 1.4338e-14 1.7127e-14 1.09822e-14 
70 1.36856e-14 1.81512e-14 3.99857e-15 
74 1.33654e-14 1.95705e-14 -3.56711e-15 
78 1.76864e-14 2.74803e-14 -1.57062e-14 
82 3.8198e-15 1.19574e-14 7.81605e-15 
86 6.00451e-15 2.035e-14 4.55289e-15 
90 4.58434e-15 1.74438e-14 -3.3428e-15 
94 3.48532e-15 1.32109e-14 -8.22315e-15 
98 -9.5107e-16 6.04274e-15 4.35953e-15 
102 -1.77686e-15 1.10434e-14 2.6554e-15 
106 -1.29483e-15 1.04643e-14 -2.46946e-15 
110 -8.01218e-16 7.13602e-15 -5.17605e-15 
114 -1.29849e-15 2.14441e-15 1.68401e-15 
118 -1.39944e-15 2.32772e-15 6.2455e-16 
122 -1.76633e-15 3.58384e-15 -8.14479e-16 
126 -1.7021e-15 3.54665e-15 -2.80806e-15 
130 1.41272e-14 1.11357e-14 1.71295e-14 
134 1.41483e-14 3.78268e-15 1.80941e-14 
138 1.32796e-14 -3.49379e-15 1.90222e-14 
142 1.74616e-14 -1.55573e-14 2.71335e-14 
146 3.92051e-15 7.74518e-15 1.17219e-14 
150 5.97148e-15 4.54634e-15 2.0776e-14 
154 4.69705e-15 -3.39417e-15 1.72969e-14 
158 3.46142e-15 -7.74684e-15 1.21866e-14 
162 -8.42197e-16 3.88584e-15 5.44688e-15 
166 -1.54715e-15 2.5323e-15 1.06016e-14 
170 -1.44168e-15 -2.29726e-15 1.02738e-14 
174 -6.90234e-16 -4.81675e-15 6.88814e-15 
178 -1.16297e-15 1.5267e-15 1.97472e-15 
182 -1.50131e-15 6.48491e-16 2.75129e-15 
186 -1.58979e-15 -7.61107e-16 3.26851e-15 
190 -1.86361e-15 -2.93412e-15 3.78725e-15 
3 -8.79173e-16 8.91322e-16 9.49755e-16 
7 -5.82105e-16 4.61983e-16 1.8167e-16 
11 -6.18188e-16 6.04028e-16 -2.42639e-16 
15 -1.07375e-15 1.15934e-15 -1.13359e-15 
19 -7.07072e-16 2.36071e-16 7.04343e-16 
23 -9.75954e-17 4.67212e-17 4.35276e-17 
27 -1.46261e-16 5.54493e-17 -3.74468e-17 
31 -5.22879e-16 1.70439e-16 -5.01922e-16 
35 -5.84067e-16 -1.67918e-16 5.10676e-16 
39 -5.8252e-17 -3.29957e-17 1.72475e-17 
43 -1.36183e-16 -5.75395e-17 -3.32301e-17 
47 -5.80432e-16 -2.62673e-16 -4.94082e-16 
51 -1.46307e-15 -1.09061e-15 1.23464e-15 
55 -6.32403e-16 -5.93097e-16 1.78296e-16 
59 -7.0976e-16 -7.19452e-16 -2.07707e-16 
63 -1.10478e-15 -1.11463e-15 -9.39188e-16 
67 1.16678e-14 -1.58438e-14 1.21973e-14 
71 1.29017e-14 -1.81815e-14 4.71334e-15 
75 1.48356e-14 -1.89599e-14 -4.91171e-15 
79 1.03235e-14 -1.14016e-14 -9.35586e-15 
83 3.21109e-15 -1.14683e-14 8.07787e-15 
87 6.12974e-15 -2.20041e-14 5.16737e-15 
91 7.79151e-15 -2.63168e-14 -6.27889e-15 
95 3.5965e-15 -1.08743e-14 -7.59314e-15 
99 -7.1143e-16 -7.88521e-15 4.93268e-15 
103 -1.55072e-15 -1.18475e-14 2.39997e-15 
107 -1.62452e-15 -1.14013e-14 -2.58253e-15 
111 -9.4873e-16 -6.28867e-15 -3.90057e-15 
115 -2.42162e-15 -5.54962e-15 3.27408e-15 
119 -1.5111e-15 -3.30368e-15 5.62216e-16 
123 -1.61524e-15 -2.96023e-15 -6.33106e-16 
127 -1.57017e-15 -2.64425e-15 -1.80093e-15 
131 1.20601e-14 1.25012e-14 -1.65779e-14 
135 1.39276e-14 4.91948e-15 -1.94827e-14 
139 1.44183e-14 -4.84832e-15 -1.86897e-14 
143 1.12658e-14 -1.03824e-14 -1.24579e-14 
147 3.37564e-15 8.81774e-15 -1.23314e-14 
151 6.85081e-15 5.37561e-15 -2.34433e-14 
155 7.69036e-15 -6.00709e-15 -2.52834e-14 
159 3.7136e-15 -7.92412e-15 -1.09974e-14 
163 -9.72816e-16 5.6429e-15 -8.69097e-15 
167 -1.30605e-15 2.25455e-15 -1.13278e-14 
171 -1.79154e-15 -2.39817e-15 -1.10349e-14 
175 -9.4231e-16 -4.06067e-15 -6.4124e-15 
179 -2.69115e-15 3.45374e-15 -6.23028e-15 
183 -1.65907e-15 5.76303e-16 -3.3925e-15 
187 -1.55687e-15 -5.2365e-16 -2.91837e-15 
191 -1.51351e-15 -1.6464e-15 -2.50646e-15 
4 -9.08416e-16 8.94132e-16 7.47777e-16 
8 -6.01376e-16 5.95534e-16 1.94502e-16 
12 -5.06712e-16 5.18515e-16 -2.07248e-16 
16 -1.43836e-15 9.94712e-16 -1.00581e-15 
20 -5.69416e-16 2.6445e-16 5.9805e-16 
24 -8.6024e-17 1.88683e-17 4.2276e-17 
28 -6.95742e-17 6.28563e-17 -3.70112e-17 
32 -6.3888e-16 1.69752e-16 -5.54794e-16 
36 -5.08537e-16 -1.87299e-16 4.7905e-16 
40 -1.46362e-16 -5.28327e-17 5.95994e-17 
44 -1.47511e-16 -6.64392e-17 -2.528e-17 
48 -5.74305e-16 -1.94813e-16 -5.88313e-16 
52 -1.09005e-15 -1.15482e-15 1.11655e-15 
56 -4.89907e-16 -4.58718e-16 1.50127e-16 
60 -5.09457e-16 -4.39467e-16 -2.00669e-16 
64 -8.76173e-16 -8.08769e-16 -9.59395e-16 
68 1.47695e-14 -1.76911e-14 1.15659e-14 
72 1.35901e-14 -1.78018e-14 3.5318e-15 
76 1.37887e-14 -1.95617e-14 -3.76274e-15 
80 1.73908e-14 -2.69408e-14 -1.55909e-14 
84 4.02839e-15 -1.24303e-14 8.11998e-15 
88 5.80135e-15 -1.96383e-14 4.48734e-15 
92 4.80094e-15 -1.7768e-14 -3.61291e-15 
96 3.00373e-15 -1.16432e-14 -7.32173e-15 
100 -9.74391e-16 -6.20899e-15 4.40467e-15 
104 -1.57972e-15 -1.04668e-14 2.4692e-15 
108 -1.33086e-15 -1.03573e-14 -2.25754e-15 
112 -7.36218e-16 -6.03522e-15 -4.24859e-15 
116 -1.17788e-15 -1.82471e-15 1.41977e-15 
120 -1.34117e-15 -2.44451e-15 5.14382e-16 
124 -1.53363e-15 -3.05639e-15 -7.51764e-16 
128 -1.63225e-15 -3.31601e-15 -2.43644e-15 
132 1.54128e-14 1.19843e-14 -1.83228e-14 
136 1.49565e-14 3.99217e-15 -1.93061e-14 
140 1.40735e-14 -3.79935e-15 -2.02525e-14 
144 1.70291e-14 -1.55713e-14 -2.70644e-14 
148 4.04199e-15 8.20769e-15 -1.24755e-14 
152 6.07822e-15 4.22283e-15 -2.04603e-14 
156 4.55988e-15 -3.2033e-15 -1.72017e-14 
160 3.14688e-15 -7.27155e-15 -1.14119e-14 
164 -9.58278e-16 4.16649e-15 -5.96822e-15 
168 -1.77685e-15 2.65174e-15 -1.10336e-14 
172 -1.42274e-15 -2.45911e-15 -1.05297e-14 
176 -7.27668e-16 -4.16814e-15 -6.00921e-15 
180 -1.12186e-15 1.39482e-15 -1.68538e-15 
184 -1.46498e-15 6.86429e-16 -2.7856e-15 
188 -1.41215e-15 -6.30796e-16 -2.91655e-15 
192 -1.52361e-15 -2.51412e-15 -3.18299e-15 
