ITEM: TIMESTEP
25000
ITEM: NUMBER OF SURFS
192
ITEM: BOX BOUNDS oo rr rr
0 0.0005
0 0.0005
0 0.0005
ITEM: SURFS id f_ID_drag_fix[1] f_ID_drag_fix[2] f_ID_drag_fix[3] 
1 0 0 0 
5 0 0 0 
9 0 0 0 
13 0 0 0 
17 0 0 0 
21 0 0 0 
25 0 0 0 
29 0 0 0 
33 0 0 0 
37 0 0 0 
41 0 0 0 
45 0 0 0 
49 0 0 0 
53 0 0 0 
57 0 0 0 
61 0 0 0 
65 0 0 0 
69 0 0 0 
73 0 0 0 
77 0 0 0 
81 0 0 0 
85 0 0 0 
89 0 0 0 
93 0 0 0 
97 0 0 0 
101 0 0 0 
105 0 0 0 
109 0 0 0 
113 0 0 0 
117 0 0 0 
121 0 0 0 
125 0 0 0 
129 0 0 0 
133 0 0 0 
137 0 0 0 
141 0 0 0 
145 0 0 0 
149 0 0 0 
153 0 0 0 
157 0 0 0 
161 0 0 0 
165 0 0 0 
169 0 0 0 
173 0 0 0 
177 0 0 0 
181 0 0 0 
185 0 0 0 
189 0 0 0 
2 0 0 0 
6 0 0 0 
10 0 0 0 
14 0 0 0 
18 0 0 0 
22 0 0 0 
26 0 0 0 
30 0 0 0 
34 0 0 0 
38 0 0 0 
42 0 0 0 
46 0 0 0 
50 0 0 0 
54 0 0 0 
58 0 0 0 
62 0 0 0 
66 0 0 0 
70 0 0 0 
74 0 0 0 
78 0 0 0 
82 0 0 0 
86 0 0 0 
90 0 0 0 
94 0 0 0 
98 0 0 0 
102 0 0 0 
106 0 0 0 
110 0 0 0 
114 0 0 0 
118 0 0 0 
122 0 0 0 
126 0 0 0 
130 0 0 0 
134 0 0 0 
138 0 0 0 
142 0 0 0 
146 0 0 0 
150 0 0 0 
154 0 0 0 
158 0 0 0 
162 0 0 0 
166 0 0 0 
170 0 0 0 
174 0 0 0 
178 0 0 0 
182 0 0 0 
186 0 0 0 
190 0 0 0 
3 0 0 0 
7 0 0 0 
11 0 0 0 
15 0 0 0 
19 0 0 0 
23 0 0 0 
27 0 0 0 
31 0 0 0 
35 0 0 0 
39 0 0 0 
43 0 0 0 
47 0 0 0 
51 0 0 0 
55 0 0 0 
59 0 0 0 
63 0 0 0 
67 0 0 0 
71 0 0 0 
75 0 0 0 
79 0 0 0 
83 0 0 0 
87 0 0 0 
91 0 0 0 
95 0 0 0 
99 0 0 0 
103 0 0 0 
107 0 0 0 
111 0 0 0 
115 0 0 0 
119 0 0 0 
123 0 0 0 
127 0 0 0 
131 0 0 0 
135 0 0 0 
139 0 0 0 
143 0 0 0 
147 0 0 0 
151 0 0 0 
155 0 0 0 
159 0 0 0 
163 0 0 0 
167 0 0 0 
171 0 0 0 
175 0 0 0 
179 0 0 0 
183 0 0 0 
187 0 0 0 
191 0 0 0 
4 0 0 0 
8 0 0 0 
12 0 0 0 
16 0 0 0 
20 0 0 0 
24 0 0 0 
28 0 0 0 
32 0 0 0 
36 0 0 0 
40 0 0 0 
44 0 0 0 
48 0 0 0 
52 0 0 0 
56 0 0 0 
60 0 0 0 
64 0 0 0 
68 0 0 0 
72 0 0 0 
76 0 0 0 
80 0 0 0 
84 0 0 0 
88 0 0 0 
92 0 0 0 
96 0 0 0 
100 0 0 0 
104 0 0 0 
108 0 0 0 
112 0 0 0 
116 0 0 0 
120 0 0 0 
124 0 0 0 
128 0 0 0 
132 0 0 0 
136 0 0 0 
140 0 0 0 
144 0 0 0 
148 0 0 0 
152 0 0 0 
156 0 0 0 
160 0 0 0 
164 0 0 0 
168 0 0 0 
172 0 0 0 
176 0 0 0 
180 0 0 0 
184 0 0 0 
188 0 0 0 
192 0 0 0 
ITEM: TIMESTEP
26000
ITEM: NUMBER OF SURFS
192
ITEM: BOX BOUNDS oo rr rr
0 0.0005
0 0.0005
0 0.0005
ITEM: SURFS id f_ID_drag_fix[1] f_ID_drag_fix[2] f_ID_drag_fix[3] 
1 1.20665e-10 7.56884e-11 1.00889e-10 
5 4.37456e-10 2.56057e-10 6.47542e-11 
9 2.65465e-10 1.54835e-10 -8.25907e-11 
13 1.86081e-10 1.07776e-10 -1.93451e-10 
17 4.54936e-10 1.94639e-10 3.90475e-10 
21 7.18572e-10 2.27556e-10 2.29857e-10 
25 7.43358e-10 -2.23817e-11 -1.34494e-10 
29 5.73271e-10 1.28375e-10 -3.43087e-10 
33 2.46961e-10 -2.87742e-11 1.29946e-10 
37 5.16545e-10 -2.83712e-11 7.32855e-11 
41 8.625e-10 -2.05079e-10 -2.11498e-10 
45 5.07293e-10 -5.74368e-11 -3.85192e-10 
49 0 0 0 
53 0 0 0 
57 1.40408e-10 -1.11781e-10 5.00858e-12 
61 1.50905e-10 -1.56793e-10 -1.11881e-10 
65 0 0 0 
69 1.48364e-10 3.21234e-10 1.4039e-10 
73 1.83727e-10 1.73921e-10 -1.85903e-11 
77 0 0 0 
81 0 0 0 
85 0 0 0 
89 7.39395e-12 1.10719e-10 -2.85134e-12 
93 8.07424e-11 6.13704e-11 -1.92386e-11 
97 0 0 0 
101 0 0 0 
105 -4.81301e-11 3.77391e-10 -1.12683e-11 
109 2.48479e-11 6.79231e-11 -4.25221e-11 
113 0 0 0 
117 0 0 0 
121 0 0 0 
125 0 0 0 
129 2.60048e-10 2.0973e-10 2.09848e-10 
133 0 0 0 
137 0 0 0 
141 2.19101e-10 -1.40734e-10 1.49261e-10 
145 6.7629e-11 1.16147e-10 1.68269e-10 
149 6.64915e-11 2.68513e-11 3.48528e-10 
153 5.41401e-12 -3.00608e-11 1.80732e-10 
157 0 0 0 
161 1.76058e-11 3.4247e-11 1.32302e-10 
165 -6.0132e-11 6.50965e-11 3.1496e-10 
169 1.20606e-11 -2.98567e-11 9.50445e-11 
173 0 0 0 
177 0 0 0 
181 0 0 0 
185 -9.25413e-11 -3.46513e-11 9.25724e-11 
189 0 0 0 
2 0 0 0 
6 1.33964e-10 4.79654e-11 7.66249e-11 
10 0 0 0 
14 1.05927e-10 6.26723e-11 -1.60016e-12 
18 1.90102e-10 2.98829e-12 7.42641e-11 
22 0 0 0 
26 2.3361e-10 1.01233e-11 2.43512e-12 
30 8.36486e-11 1.50739e-11 -2.26142e-11 
34 4.15291e-11 -3.03849e-11 5.927e-11 
38 9.05743e-10 -2.45692e-10 1.95052e-10 
42 2.77737e-10 -1.06764e-10 -5.38927e-11 
46 1.00698e-10 6.82687e-11 -8.72759e-11 
50 1.50987e-10 -1.29544e-10 1.15107e-10 
54 4.64045e-10 -2.67857e-10 9.60537e-11 
58 1.39291e-10 -4.15655e-11 -5.47044e-11 
62 1.79849e-10 -2.00994e-10 -2.07549e-10 
66 0 0 0 
70 1.32901e-10 2.80538e-10 7.51281e-11 
74 1.73208e-10 2.96838e-10 -5.03139e-11 
78 0 0 0 
82 0 0 0 
86 0 0 0 
90 1.80008e-10 4.95065e-10 2.35723e-12 
94 0 0 0 
98 0 0 0 
102 -8.90029e-11 1.82294e-10 4.80155e-11 
106 -3.97914e-11 1.39037e-10 -3.4098e-11 
110 -6.80579e-11 1.73676e-10 -1.10401e-10 
114 0 0 0 
118 -2.58114e-13 3.39355e-11 2.00062e-11 
122 -1.84829e-10 1.30942e-10 -8.03518e-11 
126 0 0 0 
130 1.01706e-10 1.28467e-10 1.58547e-10 
134 1.33203e-10 6.4326e-11 2.07825e-10 
138 0 0 0 
142 1.01627e-10 -1.06787e-10 1.95268e-10 
146 6.53067e-11 8.35148e-12 1.11153e-11 
150 1.66561e-11 -7.16965e-11 1.14791e-10 
154 2.25263e-11 -3.71153e-11 3.56461e-11 
158 1.19393e-10 -2.38282e-10 3.05939e-10 
162 2.03936e-11 3.69928e-11 7.13581e-11 
166 5.79141e-12 2.20524e-11 3.47865e-11 
170 0 0 0 
174 0 0 0 
178 0 0 0 
182 0 0 0 
186 0 0 0 
190 0 0 0 
3 0 0 0 
7 0 0 0 
11 0 0 0 
15 0 0 0 
19 0 0 0 
23 0 0 0 
27 0 0 0 
31 0 0 0 
35 0 0 0 
39 0 0 0 
43 0 0 0 
47 0 0 0 
51 0 0 0 
55 0 0 0 
59 0 0 0 
63 0 0 0 
67 7.96141e-11 -3.04892e-10 1.23323e-10 
71 2.31538e-10 -3.29471e-10 1.01755e-10 
75 2.67681e-10 -8.68084e-11 9.96849e-12 
79 8.96528e-11 -5.91844e-11 -1.09047e-10 
83 1.14387e-10 -2.09771e-10 2.21003e-10 
87 0 0 0 
91 6.04173e-11 -4.10249e-10 -1.35182e-10 
95 6.18109e-11 -3.93184e-11 -4.64315e-11 
99 0 0 0 
103 1.50408e-11 -4.79119e-10 1.38261e-11 
107 0 0 0 
111 0 0 0 
115 0 0 0 
119 0 0 0 
123 0 0 0 
127 0 0 0 
131 0 0 0 
135 1.26318e-10 9.33135e-11 -2.42432e-10 
139 1.97181e-10 -9.14136e-11 -2.79444e-10 
143 1.24608e-10 -1.1261e-10 -1.67427e-10 
147 1.2512e-10 1.7276e-10 -1.75074e-10 
151 5.40734e-11 9.11091e-11 -4.79145e-11 
155 0 0 0 
159 1.62406e-11 -1.83545e-10 -3.47757e-10 
163 -5.19758e-11 1.61526e-10 -2.3716e-10 
167 -8.71896e-11 9.01145e-11 -8.37036e-10 
171 0 0 0 
175 0 0 0 
179 0 0 0 
183 0 0 0 
187 0 0 0 
191 0 0 0 
4 0 0 0 
8 0 0 0 
12 0 0 0 
16 0 0 0 
20 0 0 0 
24 0 0 0 
28 0 0 0 
32 0 0 0 
36 0 0 0 
40 0 0 0 
44 -4.33878e-11 3.32741e-11 2.90168e-11 
48 0 0 0 
52 0 0 0 
56 -6.97444e-11 -3.71197e-11 -1.85083e-11 
60 0 0 0 
64 0 0 0 
68 4.91104e-11 -1.23877e-10 6.55715e-11 
72 0 0 0 
76 7.29956e-11 -7.90692e-11 3.91709e-12 
80 0 0 0 
84 0 0 0 
88 2.42091e-11 -1.49538e-10 4.65154e-11 
92 0 0 0 
96 0 0 0 
100 -1.04338e-11 -1.35895e-10 1.38078e-10 
104 -8.73509e-11 -3.17256e-10 4.86042e-11 
108 0 0 0 
112 4.73393e-11 -2.34761e-10 -2.18229e-10 
116 0 0 0 
120 0 0 0 
124 0 0 0 
128 -1.73987e-11 -1.00925e-10 -6.05571e-11 
132 0 0 0 
136 1.31513e-10 3.35391e-11 -1.05838e-10 
140 2.32651e-10 -4.59295e-11 -3.55664e-10 
144 0 0 0 
148 1.15399e-10 9.98872e-11 -1.86424e-10 
152 1.16875e-10 1.27199e-10 -3.62039e-10 
156 1.12047e-10 -1.75149e-10 -4.25792e-10 
160 1.21407e-10 -3.41277e-10 -3.62699e-10 
164 0 0 0 
168 0 0 0 
172 0 0 0 
176 3.4256e-11 1.2301e-11 -6.99707e-11 
180 0 0 0 
184 0 0 0 
188 0 0 0 
192 0 0 0 
ITEM: TIMESTEP
27000
ITEM: NUMBER OF SURFS
192
ITEM: BOX BOUNDS oo rr rr
0 0.0005
0 0.0005
0 0.0005
ITEM: SURFS id f_ID_drag_fix[1] f_ID_drag_fix[2] f_ID_drag_fix[3] 
1 1.71785e-10 6.96278e-11 1.21013e-10 
5 6.17878e-11 9.93254e-11 4.03447e-11 
9 4.74076e-10 3.21654e-10 -1.09744e-10 
13 2.43461e-10 4.92243e-11 -2.02096e-10 
17 0 0 0 
21 7.09495e-10 4.58531e-11 2.41488e-10 
25 4.20458e-10 1.99376e-11 -4.16086e-11 
29 1.85977e-10 6.66331e-12 -2.46628e-10 
33 3.84103e-10 -5.08478e-11 1.77068e-10 
37 4.65759e-10 -1.40642e-10 2.38016e-11 
41 1.05791e-09 -3.8676e-10 -2.60656e-10 
45 3.46979e-10 -6.27483e-11 -1.63811e-10 
49 0 0 0 
53 0 0 0 
57 5.07897e-10 -3.41296e-10 -6.80952e-11 
61 0 0 0 
65 1.13777e-10 8.8648e-11 8.76888e-11 
69 1.09293e-10 1.22698e-10 5.48576e-11 
73 1.61791e-10 1.48276e-10 -7.36354e-11 
77 8.30936e-11 1.12472e-10 -9.48734e-11 
81 8.02589e-11 1.94408e-10 1.21855e-10 
85 1.70317e-11 1.02783e-10 -3.5684e-11 
89 1.96002e-11 2.19546e-10 -5.87844e-11 
93 1.16633e-10 2.69463e-10 -2.96938e-10 
97 0 0 0 
101 0 0 0 
105 0 0 0 
109 0 0 0 
113 0 0 0 
117 -3.35388e-11 1.8588e-10 5.17375e-11 
121 -2.04489e-11 1.08697e-10 -6.09077e-12 
125 0 0 0 
129 9.95631e-11 1.56412e-11 1.43831e-10 
133 9.38497e-11 5.36192e-11 1.70777e-10 
137 2.57629e-10 -1.08167e-10 2.63339e-10 
141 1.48581e-10 -6.82492e-11 9.10063e-11 
145 1.6131e-12 6.93738e-11 6.70444e-12 
149 6.40025e-11 1.41557e-11 1.59463e-10 
153 7.71513e-11 5.97242e-12 2.61842e-10 
157 2.22515e-11 -4.25603e-11 1.46439e-10 
161 0 0 0 
165 0 0 0 
169 0 0 0 
173 -2.81774e-11 -1.4978e-10 2.47174e-10 
177 -5.26142e-11 2.38865e-11 7.83816e-11 
181 0 0 0 
185 0 0 0 
189 0 0 0 
2 6.96639e-11 1.03987e-10 1.17297e-10 
6 2.02797e-10 7.69371e-11 7.19062e-11 
10 4.05159e-11 6.08015e-11 -3.7159e-12 
14 3.50582e-10 1.86723e-10 -1.33094e-10 
18 5.32669e-10 7.57012e-11 3.18717e-10 
22 4.56358e-10 1.35748e-10 1.0647e-10 
26 7.08771e-10 1.07393e-10 -1.51431e-10 
30 0 0 0 
34 5.04806e-11 -2.48609e-11 4.04316e-11 
38 4.12202e-10 -1.22535e-10 7.03929e-11 
42 5.85531e-10 -9.69086e-11 -1.55619e-10 
46 6.56985e-10 -1.51986e-10 -3.72163e-10 
50 4.98471e-10 -3.24791e-10 2.90809e-10 
54 9.5733e-11 -8.53273e-11 2.66327e-11 
58 2.60883e-10 -2.37369e-10 -7.33785e-11 
62 0 0 0 
66 0 0 0 
70 2.7958e-10 2.27923e-10 5.94232e-11 
74 1.87433e-10 3.10209e-10 -1.80864e-11 
78 0 0 0 
82 3.66163e-11 1.5394e-10 9.98338e-11 
86 0 0 0 
90 2.84301e-11 2.98006e-10 -4.9741e-11 
94 -6.89234e-12 1.49026e-10 -1.32587e-10 
98 0 0 0 
102 0 0 0 
106 0 0 0 
110 -1.54489e-11 1.0075e-10 -5.28522e-12 
114 0 0 0 
118 0 0 0 
122 0 0 0 
126 0 0 0 
130 2.52121e-10 1.70363e-10 3.60149e-10 
134 5.73713e-10 9.40504e-11 6.16404e-10 
138 1.02694e-10 -6.92972e-11 2.09381e-10 
142 0 0 0 
146 6.76056e-11 1.33241e-10 2.27719e-10 
150 1.29959e-10 4.77331e-11 2.03002e-10 
154 0 0 0 
158 0 0 0 
162 0 0 0 
166 2.86125e-11 -4.62701e-11 1.1431e-10 
170 0 0 0 
174 7.96943e-12 -8.24836e-11 1.083e-10 
178 0 0 0 
182 -9.40125e-11 4.32121e-12 1.62665e-10 
186 0 0 0 
190 0 0 0 
3 0 0 0 
7 0 0 0 
11 0 0 0 
15 0 0 0 
19 0 0 0 
23 0 0 0 
27 0 0 0 
31 0 0 0 
35 0 0 0 
39 0 0 0 
43 0 0 0 
47 0 0 0 
51 -9.72503e-11 -9.3815e-11 1.00137e-10 
55 -8.86831e-11 -1.54815e-10 1.33515e-11 
59 0 0 0 
63 0 0 0 
67 0 0 0 
71 3.02338e-10 -6.39459e-10 -1.19603e-11 
75 3.84353e-10 -5.49474e-10 -1.58549e-10 
79 1.08367e-10 -2.85182e-10 -1.72465e-10 
83 3.2387e-11 -1.56465e-10 -1.51478e-11 
87 9.47299e-11 -6.37654e-11 4.73989e-11 
91 0 0 0 
95 2.59493e-11 -1.52468e-10 -7.10935e-11 
99 0 0 0 
103 -9.96968e-11 -3.52284e-10 1.80975e-11 
107 1.25981e-11 -7.82002e-11 1.53119e-11 
111 1.65656e-12 -1.16832e-10 -2.67568e-11 
115 0 0 0 
119 -1.57604e-11 -9.56527e-11 4.40991e-11 
123 0 0 0 
127 0 0 0 
131 1.54753e-10 1.68652e-10 -1.44411e-10 
135 1.28069e-10 4.65058e-11 -2.1075e-10 
139 1.12935e-10 2.73265e-12 -1.28053e-10 
143 2.43898e-10 -2.40951e-10 -2.02942e-10 
147 0 0 0 
151 0 0 0 
155 5.06065e-12 -1.48892e-10 -3.07127e-10 
159 2.39082e-10 -3.22375e-10 -4.17942e-10 
163 0 0 0 
167 0 0 0 
171 0 0 0 
175 0 0 0 
179 0 0 0 
183 0 0 0 
187 0 0 0 
191 0 0 0 
4 0 0 0 
8 -6.95053e-11 7.33476e-11 2.59325e-11 
12 0 0 0 
16 0 0 0 
20 -5.31017e-11 3.45339e-11 7.10073e-12 
24 0 0 0 
28 0 0 0 
32 0 0 0 
36 0 0 0 
40 0 0 0 
44 0 0 0 
48 0 0 0 
52 0 0 0 
56 0 0 0 
60 0 0 0 
64 0 0 0 
68 -2.28146e-12 -8.69477e-12 1.09429e-10 
72 2.84585e-10 -2.28478e-10 3.27082e-11 
76 2.22775e-11 -1.22163e-10 -5.29852e-12 
80 0 0 0 
84 7.55112e-11 -1.80446e-10 1.2464e-10 
88 2.86921e-11 -3.07773e-11 6.65782e-12 
92 0 0 0 
96 0 0 0 
100 5.38961e-12 -1.32977e-10 6.06098e-11 
104 0 0 0 
108 5.02659e-11 -7.8514e-11 -5.64467e-11 
112 0 0 0 
116 0 0 0 
120 0 0 0 
124 0 0 0 
128 0 0 0 
132 1.18253e-10 1.25346e-10 -1.25907e-10 
136 1.15148e-10 1.69767e-11 -5.30073e-11 
140 0 0 0 
144 6.24224e-11 -4.5232e-11 -4.4203e-11 
148 1.78642e-10 2.73505e-10 -3.90478e-10 
152 6.23516e-11 1.17743e-10 -3.6357e-10 
156 0 0 0 
160 3.24466e-11 -8.99444e-11 -1.01367e-10 
164 -1.44711e-13 5.59149e-11 -7.49889e-11 
168 0 0 0 
172 0 0 0 
176 0 0 0 
180 0 0 0 
184 0 0 0 
188 0 0 0 
192 0 0 0 
ITEM: TIMESTEP
28000
ITEM: NUMBER OF SURFS
192
ITEM: BOX BOUNDS oo rr rr
0 0.0005
0 0.0005
0 0.0005
ITEM: SURFS id f_ID_drag_fix[1] f_ID_drag_fix[2] f_ID_drag_fix[3] 
1 0 0 0 
5 3.54373e-10 2.75323e-10 5.45438e-11 
9 1.3677e-10 7.74336e-11 -3.26951e-11 
13 7.67879e-11 8.32914e-11 -6.0466e-11 
17 1.3564e-10 1.11112e-10 2.44817e-10 
21 7.95332e-11 3.78707e-11 1.05323e-11 
25 2.79398e-10 1.75354e-11 -1.05416e-11 
29 1.12529e-10 2.85362e-11 -3.90759e-11 
33 1.34305e-10 -5.38061e-11 1.25052e-10 
37 1.63142e-09 -3.90186e-10 2.98618e-10 
41 4.92689e-10 -1.4336e-10 -5.74797e-11 
45 5.36891e-10 -1.22237e-10 -3.5978e-10 
49 1.72928e-10 -1.03278e-10 1.09812e-10 
53 1.99003e-10 -1.27303e-10 6.60829e-11 
57 0 0 0 
61 1.4416e-10 -9.72431e-11 -5.09103e-11 
65 3.26147e-11 7.14427e-11 1.02224e-10 
69 2.00793e-10 2.40493e-10 7.47679e-11 
73 1.20619e-10 1.02271e-10 -2.53568e-11 
77 1.11503e-10 9.72094e-11 -8.24706e-11 
81 6.58396e-11 2.71385e-10 1.8114e-10 
85 -7.54465e-12 5.58938e-11 1.58734e-11 
89 -1.70147e-11 3.22491e-11 -8.37386e-11 
93 7.94954e-12 1.08533e-10 -4.99547e-11 
97 -3.61463e-11 6.815e-11 9.24115e-12 
101 -7.4293e-12 1.85013e-10 -7.61504e-12 
105 0 0 0 
109 0 0 0 
113 0 0 0 
117 0 0 0 
121 0 0 0 
125 0 0 0 
129 0 0 0 
133 1.74352e-10 3.44082e-11 2.48873e-10 
137 2.66406e-10 -6.43722e-11 3.39836e-10 
141 0 0 0 
145 0 0 0 
149 8.94484e-11 3.90591e-11 1.16647e-10 
153 2.11077e-11 1.12703e-13 1.21858e-10 
157 4.02532e-11 -1.46854e-10 2.17793e-10 
161 0 0 0 
165 0 0 0 
169 0 0 0 
173 0 0 0 
177 0 0 0 
181 0 0 0 
185 0 0 0 
189 0 0 0 
2 0 0 0 
6 2.37221e-10 1.35864e-10 1.27975e-11 
10 2.23315e-10 6.70909e-11 -4.14698e-11 
14 0 0 0 
18 3.16352e-10 1.31895e-10 2.73865e-10 
22 2.28096e-10 8.35742e-11 -8.08365e-12 
26 5.61351e-10 4.08863e-11 -1.42133e-10 
30 6.98759e-10 1.64112e-10 -4.81001e-10 
34 4.25413e-10 -1.78078e-10 3.00155e-10 
38 2.82833e-10 -2.08884e-12 3.25108e-11 
42 9.2544e-10 -5.47013e-11 -2.39831e-10 
46 1.3227e-10 -5.4958e-11 -1.00998e-10 
50 1.09557e-10 -1.52984e-10 1.66538e-10 
54 3.48713e-10 -2.90926e-10 5.84858e-11 
58 0 0 0 
62 8.7709e-11 -8.37472e-11 -6.51918e-11 
66 2.14988e-10 1.92136e-10 2.07887e-10 
70 1.34624e-10 2.74485e-10 8.5141e-11 
74 7.67033e-11 1.85941e-10 -4.73739e-11 
78 2.10118e-10 2.76573e-10 -1.73218e-10 
82 1.54114e-10 2.78968e-10 1.76066e-10 
86 0 0 0 
90 0 0 0 
94 0 0 0 
98 0 0 0 
102 1.78963e-11 1.23343e-10 3.28094e-11 
106 0 0 0 
110 0 0 0 
114 0 0 0 
118 0 0 0 
122 0 0 0 
126 0 0 0 
130 8.77127e-11 4.53752e-11 9.44504e-11 
134 1.67883e-10 -1.87635e-11 7.35658e-11 
138 6.7717e-11 -2.7962e-11 6.09708e-11 
142 6.95874e-11 -1.16253e-10 2.37682e-10 
146 0 0 0 
150 0 0 0 
154 6.82125e-11 -4.84165e-11 7.96095e-11 
158 0 0 0 
162 -3.74561e-11 2.05783e-10 3.20688e-10 
166 8.12454e-13 5.2181e-11 9.53778e-11 
170 -3.31398e-11 -1.79512e-11 1.09802e-10 
174 0 0 0 
178 0 0 0 
182 0 0 0 
186 0 0 0 
190 0 0 0 
3 0 0 0 
7 -7.25927e-11 1.95259e-11 2.63062e-11 
11 0 0 0 
15 0 0 0 
19 0 0 0 
23 0 0 0 
27 0 0 0 
31 0 0 0 
35 0 0 0 
39 0 0 0 
43 -1.39451e-10 -4.30746e-11 -2.21198e-11 
47 0 0 0 
51 0 0 0 
55 0 0 0 
59 0 0 0 
63 0 0 0 
67 0 0 0 
71 1.59914e-10 -2.94862e-10 8.91658e-11 
75 6.19286e-11 -2.11517e-11 -2.58536e-11 
79 0 0 0 
83 0 0 0 
87 1.58796e-10 -3.28933e-10 -3.23365e-12 
91 0 0 0 
95 3.8183e-11 -1.55757e-10 -4.29204e-11 
99 1.7394e-11 -5.99501e-11 2.30111e-11 
103 -6.95627e-11 -3.52082e-10 9.59638e-11 
107 5.78504e-13 -1.40166e-10 -6.89113e-11 
111 0 0 0 
115 0 0 0 
119 0 0 0 
123 0 0 0 
127 0 0 0 
131 8.43887e-11 9.643e-11 -1.40875e-10 
135 1.63807e-10 1.54546e-10 -1.83229e-10 
139 1.40374e-10 -1.02686e-10 -1.4719e-10 
143 2.18664e-10 -1.51224e-10 -2.15827e-10 
147 0 0 0 
151 9.33118e-11 6.14483e-11 -1.95511e-10 
155 0 0 0 
159 0 0 0 
163 0 0 0 
167 0 0 0 
171 0 0 0 
175 6.0047e-11 -6.36557e-11 -7.98529e-11 
179 0 0 0 
183 0 0 0 
187 0 0 0 
191 0 0 0 
4 0 0 0 
8 0 0 0 
12 0 0 0 
16 0 0 0 
20 0 0 0 
24 -7.35772e-11 6.65174e-11 1.80284e-12 
28 0 0 0 
32 0 0 0 
36 0 0 0 
40 0 0 0 
44 0 0 0 
48 0 0 0 
52 0 0 0 
56 -5.48326e-11 -5.03359e-11 2.41515e-11 
60 0 0 0 
64 -4.69924e-11 -5.57898e-11 -6.49849e-11 
68 1.20153e-10 -6.67866e-11 -2.02555e-12 
72 1.36887e-10 -2.75668e-10 6.78716e-11 
76 0 0 0 
80 0 0 0 
84 0 0 0 
88 3.81019e-11 -1.6386e-10 -2.51164e-12 
92 1.94299e-10 -2.50551e-10 1.55651e-12 
96 6.29953e-11 -2.52867e-10 -1.35911e-10 
100 0 0 0 
104 -1.58304e-11 -8.84246e-11 -4.48483e-12 
108 -4.94137e-11 -1.82066e-10 -1.15184e-11 
112 0 0 0 
116 0 0 0 
120 -6.16129e-11 -1.1116e-10 -7.03965e-12 
124 0 0 0 
128 0 0 0 
132 0 0 0 
136 5.26589e-11 -1.05835e-12 -6.33694e-11 
140 6.40947e-11 -6.4483e-11 -1.09952e-10 
144 8.47664e-11 -2.05051e-11 -7.60663e-11 
148 0 0 0 
152 0 0 0 
156 4.87553e-11 1.96448e-11 -1.10023e-10 
160 1.73008e-10 -2.60425e-10 -5.34608e-10 
164 0 0 0 
168 -2.40097e-11 -1.03367e-13 -1.60881e-10 
172 -7.28517e-12 -8.65054e-11 -2.55062e-11 
176 -2.97864e-11 -1.13588e-10 -9.43736e-11 
180 0 0 0 
184 0 0 0 
188 0 0 0 
192 0 0 0 
ITEM: TIMESTEP
29000
ITEM: NUMBER OF SURFS
192
ITEM: BOX BOUNDS oo rr rr
0 0.0005
0 0.0005
0 0.0005
ITEM: SURFS id f_ID_drag_fix[1] f_ID_drag_fix[2] f_ID_drag_fix[3] 
1 3.29173e-11 2.72487e-11 4.10508e-11 
5 2.90384e-10 1.3504e-10 5.99323e-11 
9 0 0 0 
13 1.23736e-10 1.19574e-10 -1.19935e-10 
17 3.56156e-10 1.14053e-10 2.83551e-10 
21 3.96341e-10 8.07212e-11 -7.79697e-11 
25 7.17337e-10 2.00525e-10 -1.72881e-10 
29 2.4554e-10 1.32835e-10 -1.91182e-10 
33 1.82924e-10 4.43147e-12 4.68748e-11 
37 3.71162e-10 2.80218e-11 -6.39855e-12 
41 4.12676e-10 -1.74124e-10 -1.35181e-10 
45 2.16575e-10 -5.16635e-11 -1.99545e-10 
49 2.32912e-10 -1.05128e-10 1.08178e-10 
53 9.8247e-11 -2.50591e-11 8.54104e-11 
57 1.98599e-10 -1.78714e-10 -4.54914e-11 
61 9.2801e-11 -6.11319e-11 -5.58818e-11 
65 0 0 0 
69 0 0 0 
73 3.08995e-10 3.41933e-10 -9.83936e-11 
77 0 0 0 
81 7.82446e-11 2.0435e-10 1.50841e-10 
85 2.41261e-11 1.48232e-10 3.74592e-11 
89 -8.14571e-12 4.73898e-11 2.44364e-11 
93 3.23702e-11 4.90327e-11 -5.46521e-11 
97 -8.60858e-11 5.77211e-11 5.33173e-11 
101 0 0 0 
105 0 0 0 
109 0 0 0 
113 0 0 0 
117 0 0 0 
121 -1.43717e-10 1.49774e-10 -4.79039e-11 
125 0 0 0 
129 1.52413e-10 2.18051e-10 2.35228e-10 
133 3.06648e-10 1.44168e-10 2.3736e-10 
137 3.34079e-10 -1.07557e-11 5.42942e-10 
141 0 0 0 
145 0 0 0 
149 -4.09738e-11 1.26909e-10 2.3554e-10 
153 2.41641e-11 2.3664e-11 7.32397e-11 
157 9.61684e-11 -2.23458e-10 2.88673e-10 
161 3.66179e-11 1.64091e-11 3.34194e-11 
165 0 0 0 
169 -4.00646e-11 1.54975e-11 1.11713e-10 
173 1.49986e-11 -5.16565e-11 5.77884e-11 
177 -2.90539e-11 8.73452e-11 1.06883e-10 
181 -3.33388e-11 4.63504e-11 1.20207e-10 
185 -5.63286e-11 -1.50352e-11 5.43699e-11 
189 0 0 0 
2 2.70105e-10 1.88817e-10 1.72482e-10 
6 3.59683e-10 2.72423e-10 7.99537e-11 
10 0 0 0 
14 0 0 0 
18 0 0 0 
22 5.61502e-10 1.26331e-10 1.89201e-10 
26 1.12118e-10 8.05148e-11 1.59162e-11 
30 3.8528e-10 8.51925e-11 -1.82156e-10 
34 7.47505e-11 -6.75057e-11 4.35436e-11 
38 2.09647e-10 -3.6512e-12 -4.60735e-12 
42 9.84361e-10 -4.15124e-11 -2.57395e-10 
46 0 0 0 
50 4.94345e-10 -2.59297e-10 4.89879e-10 
54 0 0 0 
58 1.32503e-10 -6.71246e-11 7.16322e-12 
62 2.03554e-10 -1.31755e-10 -1.87588e-10 
66 0 0 0 
70 1.48838e-10 2.1528e-10 1.32446e-10 
74 1.33802e-10 7.6632e-11 -3.50363e-11 
78 8.25508e-11 1.17205e-10 -5.07648e-11 
82 9.30128e-11 2.19084e-10 1.68229e-10 
86 7.02412e-11 1.50075e-10 4.08512e-11 
90 0 0 0 
94 5.71657e-11 1.08185e-10 -6.09695e-11 
98 0 0 0 
102 -6.01039e-11 1.8692e-10 3.85011e-11 
106 0 0 0 
110 0 0 0 
114 0 0 0 
118 0 0 0 
122 0 0 0 
126 0 0 0 
130 0 0 0 
134 0 0 0 
138 2.01662e-10 -9.96169e-11 3.48644e-10 
142 0 0 0 
146 1.03154e-10 1.13763e-10 1.92593e-10 
150 6.93832e-11 1.28501e-10 1.78905e-10 
154 7.56665e-11 -3.23859e-11 1.14772e-10 
158 9.11848e-11 -1.30746e-10 1.20103e-10 
162 4.05466e-12 8.22386e-11 5.74212e-11 
166 4.95971e-11 -1.96367e-11 8.66971e-11 
170 0 0 0 
174 0 0 0 
178 0 0 0 
182 -6.81559e-11 2.75675e-11 9.37263e-11 
186 0 0 0 
190 0 0 0 
3 0 0 0 
7 0 0 0 
11 0 0 0 
15 0 0 0 
19 0 0 0 
23 0 0 0 
27 0 0 0 
31 0 0 0 
35 0 0 0 
39 0 0 0 
43 0 0 0 
47 0 0 0 
51 0 0 0 
55 0 0 0 
59 0 0 0 
63 0 0 0 
67 0 0 0 
71 1.41076e-10 -3.00105e-10 1.91558e-11 
75 1.72713e-10 -1.93443e-10 -7.1587e-13 
79 2.45493e-10 -2.53503e-10 -2.19022e-10 
83 0 0 0 
87 1.36704e-10 -3.069e-10 7.07898e-11 
91 6.47599e-11 -4.45193e-10 -1.0851e-10 
95 0 0 0 
99 4.1854e-11 -9.2427e-11 2.00554e-11 
103 4.23118e-11 -3.06581e-10 1.38481e-10 
107 -8.76227e-11 -2.49156e-10 2.08974e-11 
111 0 0 0 
115 0 0 0 
119 0 0 0 
123 0 0 0 
127 0 0 0 
131 2.09641e-10 1.63163e-10 -3.18104e-10 
135 5.06837e-11 3.01896e-11 -7.66729e-11 
139 1.70656e-10 -2.62408e-11 -3.11006e-10 
143 1.36956e-10 -8.01885e-11 -2.10664e-10 
147 1.57597e-12 9.31223e-11 -1.14954e-10 
151 0 0 0 
155 4.02994e-11 -1.19858e-11 -3.28106e-10 
159 6.38065e-11 -8.0624e-11 -1.21327e-10 
163 3.64989e-11 5.02241e-11 -5.71073e-11 
167 0 0 0 
171 0 0 0 
175 0 0 0 
179 0 0 0 
183 0 0 0 
187 0 0 0 
191 0 0 0 
4 0 0 0 
8 0 0 0 
12 0 0 0 
16 0 0 0 
20 -9.39077e-11 1.93647e-11 1.102e-10 
24 0 0 0 
28 0 0 0 
32 0 0 0 
36 0 0 0 
40 0 0 0 
44 0 0 0 
48 0 0 0 
52 -2.11127e-11 -5.60615e-11 1.18055e-12 
56 0 0 0 
60 0 0 0 
64 0 0 0 
68 8.44528e-11 -1.70101e-10 1.2669e-10 
72 5.87191e-10 -7.19304e-10 2.56653e-10 
76 1.06061e-10 -1.06851e-10 -4.76472e-11 
80 0 0 0 
84 0 0 0 
88 4.59716e-11 -1.90179e-10 1.47272e-11 
92 1.12843e-10 -3.22729e-10 -1.50644e-10 
96 7.74432e-12 -1.27152e-10 -4.7037e-11 
100 0 0 0 
104 0 0 0 
108 -2.61295e-11 -2.25399e-10 -4.13092e-12 
112 -5.78915e-11 -1.1245e-10 -7.68509e-11 
116 0 0 0 
120 0 0 0 
124 0 0 0 
128 -3.92615e-11 -2.80837e-11 -4.79574e-11 
132 2.62894e-10 2.74598e-10 -2.80617e-10 
136 1.11434e-10 2.78074e-11 -2.25451e-10 
140 5.35765e-11 -6.52217e-11 -1.77098e-10 
144 4.10197e-11 -2.39004e-11 -9.87908e-11 
148 2.50821e-11 9.79246e-11 -1.29118e-10 
152 7.30758e-11 1.19611e-10 -1.21091e-10 
156 0 0 0 
160 0 0 0 
164 0 0 0 
168 -4.20101e-11 -5.26344e-11 -1.06281e-10 
172 -1.22643e-10 -9.93416e-11 -3.53874e-10 
176 -2.8193e-11 -2.86816e-11 -9.58716e-11 
180 0 0 0 
184 0 0 0 
188 0 0 0 
192 0 0 0 
ITEM: TIMESTEP
30000
ITEM: NUMBER OF SURFS
192
ITEM: BOX BOUNDS oo rr rr
0 0.0005
0 0.0005
0 0.0005
ITEM: SURFS id f_ID_drag_fix[1] f_ID_drag_fix[2] f_ID_drag_fix[3] 
1 0 0 0 
5 4.11996e-10 2.11239e-10 1.10834e-10 
9 9.45464e-11 4.37245e-11 -3.82314e-11 
13 0 0 0 
17 0 0 0 
21 3.23656e-10 7.62401e-11 1.08096e-10 
25 5.73458e-10 1.02123e-10 -1.2209e-10 
29 1.23316e-10 4.50983e-11 -1.17148e-10 
33 3.99617e-10 -8.42629e-11 2.32529e-10 
37 3.84125e-10 -6.09799e-11 8.90732e-11 
41 0 0 0 
45 1.0684e-10 -4.64737e-11 -6.62484e-11 
49 5.74085e-10 -3.63271e-10 4.3832e-10 
53 2.79213e-10 -2.62949e-10 6.46374e-11 
57 8.77932e-11 -3.04103e-11 -7.63437e-12 
61 1.69161e-10 -1.28707e-10 -4.08584e-11 
65 0 0 0 
69 2.86433e-11 5.15747e-11 2.5809e-11 
73 8.71756e-11 1.67655e-10 -6.05614e-11 
77 0 0 0 
81 5.31025e-11 2.16862e-10 1.01706e-10 
85 4.17625e-11 1.83857e-10 3.68972e-11 
89 1.24728e-10 1.88854e-10 6.54862e-12 
93 2.88186e-10 4.56247e-10 -3.52198e-10 
97 0 0 0 
101 -3.99494e-11 1.35213e-10 6.7538e-11 
105 0 0 0 
109 0 0 0 
113 0 0 0 
117 0 0 0 
121 0 0 0 
125 -2.87052e-11 7.22089e-11 -4.07391e-11 
129 0 0 0 
133 5.59238e-11 1.93418e-11 1.01817e-10 
137 0 0 0 
141 0 0 0 
145 0 0 0 
149 4.28533e-11 4.95451e-11 4.8609e-11 
153 0 0 0 
157 9.6419e-11 -1.36978e-10 1.70056e-10 
161 -4.43492e-11 7.79062e-11 7.30576e-11 
165 -7.43502e-11 5.61026e-11 1.75334e-10 
169 0 0 0 
173 0 0 0 
177 0 0 0 
181 0 0 0 
185 -3.96239e-11 -6.4374e-11 1.23006e-11 
189 0 0 0 
2 4.5008e-10 2.68478e-10 2.21839e-10 
6 5.3777e-10 4.50839e-10 8.17361e-11 
10 0 0 0 
14 0 0 0 
18 4.97122e-10 1.67917e-10 3.07523e-10 
22 6.96047e-10 1.73179e-10 2.93045e-10 
26 9.66254e-10 1.70008e-11 -2.1274e-10 
30 1.4616e-10 1.8999e-11 -7.08227e-11 
34 3.57351e-10 -9.49634e-11 3.30849e-10 
38 2.22718e-10 -9.69373e-11 3.35582e-11 
42 1.01754e-09 -2.15747e-10 -3.40411e-10 
46 0 0 0 
50 3.96966e-10 -1.77124e-10 1.96841e-10 
54 3.40723e-10 -2.53729e-10 1.25286e-10 
58 1.97475e-10 -1.00683e-10 -5.12072e-12 
62 0 0 0 
66 7.3439e-11 7.7789e-11 1.16298e-10 
70 1.56343e-10 1.98728e-10 9.18654e-11 
74 7.86229e-11 1.22793e-10 -7.33845e-11 
78 0 0 0 
82 0 0 0 
86 1.17726e-10 1.49462e-10 -3.677e-11 
90 2.86255e-11 9.80311e-11 2.90073e-11 
94 5.059e-11 7.08178e-11 -5.26346e-11 
98 -2.66206e-11 1.13493e-10 7.89187e-11 
102 1.51792e-11 5.92021e-11 1.74226e-11 
106 -2.98777e-11 1.57747e-10 4.43816e-11 
110 -3.19409e-11 1.57506e-10 -1.05924e-11 
114 0 0 0 
118 0 0 0 
122 0 0 0 
126 0 0 0 
130 1.53621e-10 1.68821e-10 2.53278e-10 
134 1.52329e-10 6.29119e-11 2.13879e-10 
138 0 0 0 
142 0 0 0 
146 -2.83995e-11 6.59234e-11 1.25314e-10 
150 4.67876e-11 1.21027e-12 8.5884e-11 
154 4.4072e-11 -8.78359e-11 2.35387e-10 
158 0 0 0 
162 0 0 0 
166 0 0 0 
170 -6.25015e-13 -5.92858e-11 1.66982e-10 
174 0 0 0 
178 -4.70827e-11 4.31071e-11 8.15248e-11 
182 0 0 0 
186 0 0 0 
190 0 0 0 
3 0 0 0 
7 0 0 0 
11 0 0 0 
15 0 0 0 
19 0 0 0 
23 0 0 0 
27 0 0 0 
31 0 0 0 
35 0 0 0 
39 0 0 0 
43 0 0 0 
47 0 0 0 
51 0 0 0 
55 0 0 0 
59 0 0 0 
63 0 0 0 
67 2.32243e-10 -3.23951e-10 2.4237e-10 
71 0 0 0 
75 2.91719e-10 -3.28181e-10 -1.00505e-10 
79 1.34543e-10 -1.0737e-10 -8.71186e-11 
83 0 0 0 
87 1.61083e-10 -4.68164e-10 1.08704e-10 
91 0 0 0 
95 1.59857e-10 -2.64921e-10 -3.41264e-10 
99 0 0 0 
103 0 0 0 
107 0 0 0 
111 0 0 0 
115 0 0 0 
119 0 0 0 
123 0 0 0 
127 0 0 0 
131 2.40837e-10 2.80646e-10 -3.33298e-10 
135 1.15729e-10 6.79061e-11 -1.82936e-10 
139 9.11847e-11 -1.39367e-11 -1.22454e-10 
143 0 0 0 
147 3.9514e-11 2.40722e-11 -4.53499e-11 
151 -6.46551e-12 3.75968e-11 -9.30835e-12 
155 5.63887e-11 -2.12768e-11 -1.28677e-10 
159 5.71869e-11 -1.22122e-10 -1.40462e-10 
163 -1.58113e-11 1.33909e-10 -1.03314e-10 
167 -3.18486e-11 -7.72367e-12 -1.91089e-10 
171 0 0 0 
175 1.55419e-12 -7.97097e-11 -3.5325e-11 
179 0 0 0 
183 0 0 0 
187 0 0 0 
191 0 0 0 
4 0 0 0 
8 0 0 0 
12 0 0 0 
16 0 0 0 
20 0 0 0 
24 0 0 0 
28 0 0 0 
32 0 0 0 
36 0 0 0 
40 0 0 0 
44 -1.35642e-10 -2.83977e-11 -5.75552e-12 
48 0 0 0 
52 0 0 0 
56 -1.01508e-10 1.696e-11 -4.47241e-12 
60 -3.85689e-11 -4.89367e-11 3.41878e-13 
64 0 0 0 
68 0 0 0 
72 0 0 0 
76 1.22652e-10 -2.41254e-10 -3.2411e-11 
80 4.77727e-11 -5.87913e-11 -7.11858e-12 
84 0 0 0 
88 9.59783e-11 -1.37736e-10 2.78187e-11 
92 5.12163e-11 -2.2856e-10 -6.8673e-11 
96 0 0 0 
100 0 0 0 
104 0 0 0 
108 6.97885e-11 -8.11027e-11 -5.1946e-12 
112 0 0 0 
116 -4.67749e-11 -2.21611e-11 3.92945e-11 
120 -9.30917e-11 -1.77695e-10 -5.85255e-12 
124 0 0 0 
128 -1.12878e-11 -3.07374e-11 -5.89654e-11 
132 0 0 0 
136 1.67591e-10 8.0279e-11 -1.19993e-10 
140 0 0 0 
144 1.20418e-10 -1.00119e-10 -1.80094e-10 
148 1.50426e-11 1.12136e-10 -1.32469e-10 
152 8.9333e-11 7.33723e-11 -1.2063e-10 
156 7.43859e-11 -4.81699e-11 -2.00271e-10 
160 0 0 0 
164 -9.6933e-11 6.68983e-11 -6.66123e-11 
168 0 0 0 
172 0 0 0 
176 1.71024e-11 -1.30289e-10 -1.51426e-10 
180 0 0 0 
184 0 0 0 
188 0 0 0 
192 0 0 0 
ITEM: TIMESTEP
31000
ITEM: NUMBER OF SURFS
192
ITEM: BOX BOUNDS oo rr rr
0 0.0005
0 0.0005
0 0.0005
ITEM: SURFS id f_ID_drag_fix[1] f_ID_drag_fix[2] f_ID_drag_fix[3] 
1 0 0 0 
5 0 0 0 
9 1.04728e-10 1.51566e-10 -1.09492e-11 
13 3.05525e-10 2.35203e-10 -1.99392e-10 
17 2.1155e-10 5.04287e-11 2.33759e-10 
21 5.58752e-10 1.71386e-10 2.77776e-10 
25 8.67077e-10 7.87198e-11 -2.81581e-10 
29 3.68211e-10 1.6663e-10 -2.35473e-10 
33 0 0 0 
37 2.18218e-10 -3.42308e-11 8.43971e-11 
41 0 0 0 
45 1.83221e-10 -3.32714e-11 -7.49325e-11 
49 1.19185e-10 -6.81712e-11 1.06027e-10 
53 3.40634e-10 -2.21467e-10 4.13143e-11 
57 1.49504e-10 -8.85616e-11 1.24959e-11 
61 6.38226e-11 -5.34379e-11 -6.05108e-11 
65 7.12215e-11 5.58784e-11 2.24803e-11 
69 -1.39793e-11 5.79706e-11 -9.28556e-12 
73 3.56828e-10 5.06666e-10 -1.18706e-10 
77 7.79152e-11 5.22415e-11 -2.28541e-11 
81 0 0 0 
85 0 0 0 
89 4.034e-11 1.8379e-10 1.47958e-11 
93 2.01967e-10 4.04691e-10 -1.78804e-10 
97 -9.70763e-11 2.08578e-10 1.98602e-10 
101 0 0 0 
105 0 0 0 
109 0 0 0 
113 0 0 0 
117 0 0 0 
121 0 0 0 
125 0 0 0 
129 6.95485e-11 1.10581e-10 7.45001e-11 
133 1.29463e-10 -1.22407e-11 2.02517e-10 
137 3.37401e-10 -1.00659e-10 4.65755e-10 
141 0 0 0 
145 3.23509e-11 3.01154e-11 1.07821e-10 
149 5.52233e-11 9.69225e-12 6.74777e-11 
153 1.11901e-10 -6.60505e-11 2.88135e-10 
157 0 0 0 
161 -1.71914e-11 8.55302e-11 1.5354e-10 
165 1.81313e-11 -2.11481e-11 1.78928e-10 
169 0 0 0 
173 0 0 0 
177 0 0 0 
181 0 0 0 
185 0 0 0 
189 0 0 0 
2 9.84504e-11 3.35662e-11 7.84065e-11 
6 3.48363e-10 2.43804e-10 4.03002e-11 
10 0 0 0 
14 0 0 0 
18 1.64588e-10 9.34883e-11 9.34793e-11 
22 0 0 0 
26 8.55988e-10 1.26987e-10 -1.65204e-10 
30 3.68508e-10 1.07055e-10 -2.11189e-10 
34 0 0 0 
38 1.01069e-09 -3.14083e-10 2.28521e-10 
42 3.70405e-10 -1.29912e-10 -4.93861e-11 
46 2.96957e-10 -8.39755e-11 -2.2801e-10 
50 1.58833e-10 -6.57698e-11 1.08065e-10 
54 0 0 0 
58 3.14919e-10 -1.53889e-10 -1.30637e-10 
62 3.08746e-10 -2.67011e-10 -2.5847e-10 
66 1.35637e-10 1.11009e-10 8.97172e-11 
70 0 0 0 
74 2.79263e-10 4.3105e-10 -2.46785e-11 
78 3.02218e-10 3.60837e-10 -1.67587e-10 
82 9.03436e-11 1.55176e-10 5.23665e-11 
86 0 0 0 
90 5.97497e-11 1.95916e-10 -6.01652e-11 
94 2.24804e-11 1.53227e-10 -1.3628e-10 
98 0 0 0 
102 -1.37471e-10 3.54149e-10 1.40725e-10 
106 0 0 0 
110 0 0 0 
114 0 0 0 
118 0 0 0 
122 -3.48554e-11 7.54725e-11 -1.29723e-11 
126 0 0 0 
130 0 0 0 
134 0 0 0 
138 0 0 0 
142 0 0 0 
146 0 0 0 
150 0 0 0 
154 0 0 0 
158 0 0 0 
162 0 0 0 
166 0 0 0 
170 -1.00072e-10 -6.59164e-12 1.58444e-10 
174 0 0 0 
178 -7.6282e-11 2.09966e-10 2.15233e-10 
182 0 0 0 
186 0 0 0 
190 0 0 0 
3 0 0 0 
7 0 0 0 
11 0 0 0 
15 0 0 0 
19 0 0 0 
23 0 0 0 
27 0 0 0 
31 0 0 0 
35 0 0 0 
39 0 0 0 
43 0 0 0 
47 0 0 0 
51 0 0 0 
55 0 0 0 
59 0 0 0 
63 0 0 0 