ITEM: TIMESTEP
5000
ITEM: NUMBER OF SURFS
192
ITEM: BOX BOUNDS oo rr rr
0 0.0005
0 0.0005
0 0.0005
ITEM: SURFS id f_f_drag_cumul[1] f_f_drag_cumul[2] f_f_drag_cumul[3] 
1 0 0 0 
5 0 0 0 
9 0 0 0 
13 0 0 0 
17 0 0 0 
21 0 0 0 
25 0 0 0 
29 0 0 0 
33 0 0 0 
37 0 0 0 
41 0 0 0 
45 0 0 0 
49 0 0 0 
53 0 0 0 
57 0 0 0 
61 0 0 0 
65 0 0 0 
69 0 0 0 
73 0 0 0 
77 0 0 0 
81 0 0 0 
85 0 0 0 
89 0 0 0 
93 0 0 0 
97 0 0 0 
101 0 0 0 
105 0 0 0 
109 0 0 0 
113 0 0 0 
117 0 0 0 
121 0 0 0 
125 0 0 0 
129 0 0 0 
133 0 0 0 
137 0 0 0 
141 0 0 0 
145 0 0 0 
149 0 0 0 
153 0 0 0 
157 0 0 0 
161 0 0 0 
165 0 0 0 
169 0 0 0 
173 0 0 0 
177 0 0 0 
181 0 0 0 
185 0 0 0 
189 0 0 0 
2 0 0 0 
6 0 0 0 
10 0 0 0 
14 0 0 0 
18 0 0 0 
22 0 0 0 
26 0 0 0 
30 0 0 0 
34 0 0 0 
38 0 0 0 
42 0 0 0 
46 0 0 0 
50 0 0 0 
54 0 0 0 
58 0 0 0 
62 0 0 0 
66 0 0 0 
70 0 0 0 
74 0 0 0 
78 0 0 0 
82 0 0 0 
86 0 0 0 
90 0 0 0 
94 0 0 0 
98 0 0 0 
102 0 0 0 
106 0 0 0 
110 0 0 0 
114 0 0 0 
118 0 0 0 
122 0 0 0 
126 0 0 0 
130 0 0 0 
134 0 0 0 
138 0 0 0 
142 0 0 0 
146 0 0 0 
150 0 0 0 
154 0 0 0 
158 0 0 0 
162 0 0 0 
166 0 0 0 
170 0 0 0 
174 0 0 0 
178 0 0 0 
182 0 0 0 
186 0 0 0 
190 0 0 0 
3 0 0 0 
7 0 0 0 
11 0 0 0 
15 0 0 0 
19 0 0 0 
23 0 0 0 
27 0 0 0 
31 0 0 0 
35 0 0 0 
39 0 0 0 
43 0 0 0 
47 0 0 0 
51 0 0 0 
55 0 0 0 
59 0 0 0 
63 0 0 0 
67 0 0 0 
71 0 0 0 
75 0 0 0 
79 0 0 0 
83 0 0 0 
87 0 0 0 
91 0 0 0 
95 0 0 0 
99 0 0 0 
103 0 0 0 
107 0 0 0 
111 0 0 0 
115 0 0 0 
119 0 0 0 
123 0 0 0 
127 0 0 0 
131 0 0 0 
135 0 0 0 
139 0 0 0 
143 0 0 0 
147 0 0 0 
151 0 0 0 
155 0 0 0 
159 0 0 0 
163 0 0 0 
167 0 0 0 
171 0 0 0 
175 0 0 0 
179 0 0 0 
183 0 0 0 
187 0 0 0 
191 0 0 0 
4 0 0 0 
8 0 0 0 
12 0 0 0 
16 0 0 0 
20 0 0 0 
24 0 0 0 
28 0 0 0 
32 0 0 0 
36 0 0 0 
40 0 0 0 
44 0 0 0 
48 0 0 0 
52 0 0 0 
56 0 0 0 
60 0 0 0 
64 0 0 0 
68 0 0 0 
72 0 0 0 
76 0 0 0 
80 0 0 0 
84 0 0 0 
88 0 0 0 
92 0 0 0 
96 0 0 0 
100 0 0 0 
104 0 0 0 
108 0 0 0 
112 0 0 0 
116 0 0 0 
120 0 0 0 
124 0 0 0 
128 0 0 0 
132 0 0 0 
136 0 0 0 
140 0 0 0 
144 0 0 0 
148 0 0 0 
152 0 0 0 
156 0 0 0 
160 0 0 0 
164 0 0 0 
168 0 0 0 
172 0 0 0 
176 0 0 0 
180 0 0 0 
184 0 0 0 
188 0 0 0 
192 0 0 0 
ITEM: TIMESTEP
10000
ITEM: NUMBER OF SURFS
192
ITEM: BOX BOUNDS oo rr rr
0 0.0005
0 0.0005
0 0.0005
ITEM: SURFS id f_f_drag_cumul[1] f_f_drag_cumul[2] f_f_drag_cumul[3] 
1 1.22794e-10 7.36578e-11 8.92609e-11 
5 2.54174e-10 1.61915e-10 6.54152e-11 
9 2.56223e-10 1.74374e-10 -6.5342e-11 
13 1.31295e-10 1.02046e-10 -1.03954e-10 
17 1.94567e-10 3.9765e-11 1.35232e-10 
21 5.23355e-10 1.02269e-10 1.12882e-10 
25 5.92698e-10 1.35619e-10 -1.36008e-10 
29 2.7077e-10 6.72398e-11 -1.8369e-10 
33 2.58564e-10 -4.71185e-11 1.61801e-10 
37 4.76658e-10 -9.5241e-11 8.76857e-11 
41 4.92894e-10 -1.15078e-10 -1.00939e-10 
45 2.71334e-10 -6.14035e-11 -1.60644e-10 
49 1.25941e-10 -6.53578e-11 6.47325e-11 
53 2.01727e-10 -1.25874e-10 3.87582e-11 
57 2.07105e-10 -1.46705e-10 -4.47974e-11 
61 1.43322e-10 -1.01477e-10 -8.26088e-11 
65 6.09426e-11 8.46105e-11 6.6223e-11 
69 1.42639e-10 1.9701e-10 5.60129e-11 
73 1.71627e-10 2.14398e-10 -5.28081e-11 
77 1.0013e-10 1.1003e-10 -9.33986e-11 
81 3.32971e-11 1.04314e-10 7.2067e-11 
85 5.39272e-11 1.98144e-10 4.98847e-11 
89 7.25272e-11 2.4654e-10 -5.96074e-11 
93 4.70079e-11 1.28848e-10 -8.7606e-11 
97 -7.33688e-12 5.19631e-11 3.32019e-11 
101 -1.08644e-11 9.20347e-11 2.23631e-11 
105 -1.53469e-11 9.32476e-11 -1.65837e-11 
109 -6.63939e-12 5.08782e-11 -3.4163e-11 
113 -7.94167e-12 1.40036e-11 9.75966e-12 
117 -1.52884e-11 2.60057e-11 7.01533e-12 
121 -9.51528e-12 1.81774e-11 -3.09651e-12 
125 -6.02983e-12 1.24917e-11 -7.5149e-12 
129 6.35607e-11 6.86097e-11 8.96945e-11 
133 1.15474e-10 4.41488e-11 1.56495e-10 
137 1.33509e-10 -4.49234e-11 1.7633e-10 
141 8.717e-11 -7.93746e-11 9.28845e-11 
145 2.39459e-11 6.24093e-11 8.42247e-11 
149 5.41415e-11 4.27795e-11 2.01984e-10 
153 5.67969e-11 -4.821e-11 1.92632e-10 
157 3.93875e-11 -8.13627e-11 1.11863e-10 
161 -4.77268e-12 3.41914e-11 5.44122e-11 
165 -9.07226e-12 1.76225e-11 8.20665e-11 
169 -1.98067e-11 -2.633e-11 1.07065e-10 
173 -1.06838e-11 -3.8534e-11 5.82043e-11 
177 -4.7782e-12 7.91746e-12 1.14756e-11 
181 -1.01414e-11 1.82515e-12 1.65691e-11 
185 -1.08878e-11 -3.81432e-12 1.65295e-11 
189 -8.58636e-12 -1.24731e-11 1.83945e-11 
2 1.36208e-10 1.02375e-10 8.43945e-11 
6 1.90461e-10 1.31658e-10 3.70562e-11 
10 2.39047e-10 1.43807e-10 -5.07268e-11 
14 1.07822e-10 5.47754e-11 -5.61997e-11 
18 2.42437e-10 5.24359e-11 1.44993e-10 
22 5.10231e-10 1.10744e-10 1.01651e-10 
26 4.95406e-10 9.70643e-11 -9.69286e-11 
30 2.23923e-10 4.21857e-11 -1.31935e-10 
34 2.86266e-10 -7.01678e-11 1.87184e-10 
38 5.12092e-10 -1.20165e-10 1.19585e-10 
42 5.09911e-10 -1.02644e-10 -1.10956e-10 
46 2.02536e-10 -3.93438e-11 -1.33968e-10 
50 1.37401e-10 -1.02249e-10 1.01561e-10 
54 2.40677e-10 -1.59577e-10 5.75662e-11 
58 2.69477e-10 -1.62924e-10 -6.23764e-11 
62 1.21509e-10 -7.82999e-11 -8.85918e-11 
66 7.13802e-11 8.23689e-11 5.68114e-11 
70 1.31347e-10 1.58097e-10 3.82209e-11 
74 9.77424e-11 1.37231e-10 -2.77617e-11 
78 5.42225e-11 8.12192e-11 -4.91297e-11 
82 4.17905e-11 1.20587e-10 7.87384e-11 
86 6.39811e-11 2.09586e-10 3.67195e-11 
90 5.67248e-11 1.85386e-10 -3.64055e-11 
94 2.31034e-11 8.70609e-11 -5.5333e-11 
98 -6.93588e-12 5.56964e-11 4.29931e-11 
102 -1.62486e-11 9.60639e-11 2.57031e-11 
106 -1.20347e-11 1.00689e-10 -2.48304e-11 
110 -5.75371e-12 4.64598e-11 -3.44077e-11 
114 -1.12364e-11 1.61415e-11 1.66877e-11 
118 -1.57527e-11 2.91118e-11 6.55465e-12 
122 -1.56535e-11 2.68924e-11 -7.05292e-12 
126 -9.27608e-12 1.82799e-11 -1.39069e-11 
130 8.25264e-11 6.20674e-11 1.03234e-10 
134 1.07698e-10 3.14571e-11 1.35559e-10 
138 8.82929e-11 -2.87343e-11 1.34068e-10 
142 5.17064e-11 -4.51388e-11 7.86535e-11 
146 4.31464e-11 7.54302e-11 1.17321e-10 
150 5.47178e-11 4.44225e-11 1.8213e-10 
154 5.63781e-11 -4.57085e-11 1.93296e-10 
158 2.41286e-11 -6.07409e-11 9.20243e-11 
162 -1.15265e-11 4.79344e-11 5.92267e-11 
166 -1.74536e-11 2.04609e-11 1.01904e-10 
170 -1.50376e-11 -2.26645e-11 1.18196e-10 
174 -7.93208e-12 -3.84259e-11 5.21754e-11 
178 -7.3946e-12 8.43475e-12 1.1143e-11 
182 -1.50648e-11 5.83185e-12 2.69245e-11 
186 -1.3715e-11 -4.14828e-12 2.66965e-11 
190 -9.46432e-12 -1.61919e-11 2.1432e-11 
3 -6.25804e-12 5.5533e-12 5.83254e-12 
7 -9.61106e-12 7.73752e-12 2.63179e-12 
11 -1.45073e-11 1.12075e-11 -3.57389e-12 
15 -1.09989e-11 1.03947e-11 -8.41408e-12 
19 -7.41998e-12 9.55145e-13 7.11304e-12 
23 -7.94461e-12 2.86052e-12 8.61251e-13 
27 -1.2979e-11 2.51733e-12 -2.63081e-12 
31 -1.55809e-11 4.80682e-12 -1.08152e-11 
35 -6.70492e-12 -1.51558e-12 5.44074e-12 
39 -6.78384e-12 -1.86941e-12 1.95161e-12 
43 -1.05776e-11 -4.58313e-12 -1.48509e-12 
47 -1.24621e-11 -2.56471e-12 -8.83604e-12 
51 -3.65193e-12 -2.41144e-12 1.48876e-12 
55 -6.5961e-12 -5.09908e-12 1.68804e-12 
59 -1.31874e-11 -9.24412e-12 -2.27315e-12 
63 -1.00512e-11 -9.07319e-12 -6.62938e-12 
67 7.20725e-11 -9.79224e-11 7.76376e-11 
71 1.3626e-10 -1.92566e-10 4.57973e-11 
75 1.50553e-10 -1.87129e-10 -4.73262e-11 
79 9.08411e-11 -9.98784e-11 -7.66667e-11 
83 2.51291e-11 -7.85534e-11 6.21607e-11 
87 5.12696e-11 -1.92817e-10 4.0523e-11 
91 6.07372e-11 -1.89351e-10 -4.95806e-11 
95 3.99919e-11 -1.03238e-10 -7.47242e-11 
99 -3.89345e-12 -3.62832e-11 2.243e-11 
103 -1.25806e-11 -8.69951e-11 1.57459e-11 
107 -1.82723e-11 -9.87701e-11 -1.91755e-11 
111 -9.33414e-12 -5.11879e-11 -3.35659e-11 
115 -7.3099e-12 -1.18584e-11 7.83488e-12 
119 -8.04225e-12 -1.79472e-11 2.77764e-12 
123 -1.24228e-11 -2.16242e-11 -4.79221e-12 
127 -8.78182e-12 -1.3701e-11 -9.28807e-12 
131 5.92568e-11 6.32116e-11 -8.5534e-11 
135 1.48022e-10 4.76862e-11 -2.02616e-10 
139 1.30893e-10 -4.31025e-11 -1.61003e-10 
143 1.13799e-10 -1.03236e-10 -1.21574e-10 
147 2.42821e-11 6.60306e-11 -9.10048e-11 
151 5.16602e-11 5.02651e-11 -1.9963e-10 
155 6.54634e-11 -5.39356e-11 -2.28761e-10 
159 4.01377e-11 -8.60165e-11 -1.23102e-10 
163 -7.10503e-12 3.8513e-11 -5.75911e-11 
167 -1.25867e-11 1.95747e-11 -9.28317e-11 
171 -1.46925e-11 -2.7073e-11 -1.02346e-10 
175 -1.27166e-11 -3.93336e-11 -5.61598e-11 
179 -9.40968e-12 1.01426e-11 -1.8655e-11 
183 -9.71062e-12 4.85991e-12 -1.73117e-11 
187 -1.2825e-11 -3.56199e-12 -1.91134e-11 
191 -7.89262e-12 -8.03437e-12 -1.1565e-11 
4 -5.95792e-12 4.96255e-12 5.34998e-12 
8 -7.29579e-12 8.93824e-12 2.14288e-12 
12 -1.12897e-11 7.74696e-12 -2.86751e-12 
16 -4.9419e-12 2.81478e-12 -3.8509e-12 
20 -9.87089e-12 4.34019e-12 6.27307e-12 
24 -7.49698e-12 2.22324e-12 2.02957e-12 
28 -5.69755e-12 1.55207e-12 -1.80532e-12 
32 -3.73453e-12 2.69801e-12 -4.40236e-12 
36 -8.65534e-12 -2.16768e-12 5.64035e-12 
40 -9.76517e-12 -4.9247e-12 3.6807e-12 
44 -7.61593e-12 -2.60388e-12 -1.69398e-12 
48 -6.44924e-12 -1.41859e-12 -5.28932e-12 
52 -6.07629e-12 -6.57076e-12 7.41801e-12 
56 -1.08831e-11 -1.12864e-11 3.30727e-12 
60 -9.68994e-12 -7.4677e-12 -1.5871e-12 
64 -7.01263e-12 -4.54817e-12 -5.2563e-12 
68 8.09516e-11 -9.8678e-11 5.74122e-11 
72 1.0789e-10 -1.40264e-10 2.6113e-11 
76 1.10229e-10 -1.5659e-10 -3.21483e-11 
80 5.0941e-11 -8.27272e-11 -5.39689e-11 
84 3.66997e-11 -1.1232e-10 7.39684e-11 
88 5.95898e-11 -2.04098e-10 4.05571e-11 
92 4.72808e-11 -1.63005e-10 -3.38554e-11 
96 2.39703e-11 -8.59917e-11 -5.68216e-11 
100 -7.97081e-12 -5.96751e-11 3.67311e-11 
104 -1.55228e-11 -1.05645e-10 2.45283e-11 
108 -6.39949e-12 -7.60627e-11 -1.78162e-11 
112 -6.72998e-12 -4.31478e-11 -2.8165e-11 
116 -9.848e-12 -1.69984e-11 1.45868e-11 
120 -1.59247e-11 -2.78291e-11 7.16815e-12 
124 -1.04713e-11 -2.31706e-11 -4.73312e-12 
128 -8.5016e-12 -1.71385e-11 -1.42521e-11 
132 7.64851e-11 5.6296e-11 -8.72347e-11 
136 1.07435e-10 2.73223e-11 -1.46447e-10 
140 9.56745e-11 -2.70249e-11 -1.32698e-10 
144 4.50847e-11 -3.85217e-11 -7.29566e-11 
148 3.13304e-11 6.05716e-11 -8.92372e-11 
152 4.85353e-11 3.49549e-11 -1.76563e-10 
156 5.358e-11 -3.59375e-11 -1.80804e-10 
160 2.32558e-11 -5.78194e-11 -9.20076e-11 
164 -1.05945e-11 4.12811e-11 -5.82601e-11 
168 -1.71431e-11 2.30646e-11 -9.75847e-11 
172 -1.28762e-11 -2.52879e-11 -9.52139e-11 
176 -6.72908e-12 -3.6938e-11 -5.01374e-11 
180 -8.72559e-12 7.19196e-12 -1.04896e-11 
184 -1.33969e-11 6.08119e-12 -2.52196e-11 
188 -1.68132e-11 -7.17112e-12 -2.4531e-11 
192 -9.2347e-12 -1.07934e-11 -1.60828e-11 
