ITEM: TIMESTEP
2500
ITEM: NUMBER OF SURFS
192
ITEM: BOX BOUNDS oo rr rr
0 0.0005
0 0.0005
0 0.0005
ITEM: SURFS id f_f_drag_cumul[1] f_f_drag_cumul[2] f_f_drag_cumul[3] 
1 0 0 0 
5 0 0 0 
9 0 0 0 
13 0 0 0 
17 0 0 0 
21 0 0 0 
25 0 0 0 
29 0 0 0 
33 0 0 0 
37 0 0 0 
41 0 0 0 
45 0 0 0 
49 0 0 0 
53 0 0 0 
57 0 0 0 
61 0 0 0 
65 0 0 0 
69 0 0 0 
73 0 0 0 
77 0 0 0 
81 0 0 0 
85 0 0 0 
89 0 0 0 
93 0 0 0 
97 0 0 0 
101 0 0 0 
105 0 0 0 
109 0 0 0 
113 0 0 0 
117 0 0 0 
121 0 0 0 
125 0 0 0 
129 0 0 0 
133 0 0 0 
137 0 0 0 
141 0 0 0 
145 0 0 0 
149 0 0 0 
153 0 0 0 
157 0 0 0 
161 0 0 0 
165 0 0 0 
169 0 0 0 
173 0 0 0 
177 0 0 0 
181 0 0 0 
185 0 0 0 
189 0 0 0 
2 0 0 0 
6 0 0 0 
10 0 0 0 
14 0 0 0 
18 0 0 0 
22 0 0 0 
26 0 0 0 
30 0 0 0 
34 0 0 0 
38 0 0 0 
42 0 0 0 
46 0 0 0 
50 0 0 0 
54 0 0 0 
58 0 0 0 
62 0 0 0 
66 0 0 0 
70 0 0 0 
74 0 0 0 
78 0 0 0 
82 0 0 0 
86 0 0 0 
90 0 0 0 
94 0 0 0 
98 0 0 0 
102 0 0 0 
106 0 0 0 
110 0 0 0 
114 0 0 0 
118 0 0 0 
122 0 0 0 
126 0 0 0 
130 0 0 0 
134 0 0 0 
138 0 0 0 
142 0 0 0 
146 0 0 0 
150 0 0 0 
154 0 0 0 
158 0 0 0 
162 0 0 0 
166 0 0 0 
170 0 0 0 
174 0 0 0 
178 0 0 0 
182 0 0 0 
186 0 0 0 
190 0 0 0 
3 0 0 0 
7 0 0 0 
11 0 0 0 
15 0 0 0 
19 0 0 0 
23 0 0 0 
27 0 0 0 
31 0 0 0 
35 0 0 0 
39 0 0 0 
43 0 0 0 
47 0 0 0 
51 0 0 0 
55 0 0 0 
59 0 0 0 
63 0 0 0 
67 0 0 0 
71 0 0 0 
75 0 0 0 
79 0 0 0 
83 0 0 0 
87 0 0 0 
91 0 0 0 
95 0 0 0 
99 0 0 0 
103 0 0 0 
107 0 0 0 
111 0 0 0 
115 0 0 0 
119 0 0 0 
123 0 0 0 
127 0 0 0 
131 0 0 0 
135 0 0 0 
139 0 0 0 
143 0 0 0 
147 0 0 0 
151 0 0 0 
155 0 0 0 
159 0 0 0 
163 0 0 0 
167 0 0 0 
171 0 0 0 
175 0 0 0 
179 0 0 0 
183 0 0 0 
187 0 0 0 
191 0 0 0 
4 0 0 0 
8 0 0 0 
12 0 0 0 
16 0 0 0 
20 0 0 0 
24 0 0 0 
28 0 0 0 
32 0 0 0 
36 0 0 0 
40 0 0 0 
44 0 0 0 
48 0 0 0 
52 0 0 0 
56 0 0 0 
60 0 0 0 
64 0 0 0 
68 0 0 0 
72 0 0 0 
76 0 0 0 
80 0 0 0 
84 0 0 0 
88 0 0 0 
92 0 0 0 
96 0 0 0 
100 0 0 0 
104 0 0 0 
108 0 0 0 
112 0 0 0 
116 0 0 0 
120 0 0 0 
124 0 0 0 
128 0 0 0 
132 0 0 0 
136 0 0 0 
140 0 0 0 
144 0 0 0 
148 0 0 0 
152 0 0 0 
156 0 0 0 
160 0 0 0 
164 0 0 0 
168 0 0 0 
172 0 0 0 
176 0 0 0 
180 0 0 0 
184 0 0 0 
188 0 0 0 
192 0 0 0 
ITEM: TIMESTEP
5000
ITEM: NUMBER OF SURFS
192
ITEM: BOX BOUNDS oo rr rr
0 0.0005
0 0.0005
0 0.0005
ITEM: SURFS id f_f_drag_cumul[1] f_f_drag_cumul[2] f_f_drag_cumul[3] 
1 1.17044e-10 6.80103e-11 8.59574e-11 
5 2.88706e-10 1.89645e-10 5.70127e-11 
9 2.6886e-10 1.92809e-10 -6.13515e-11 
13 1.15113e-10 8.85652e-11 -8.07044e-11 
17 1.74311e-10 4.14297e-11 1.28884e-10 
21 4.64945e-10 9.14804e-11 9.86219e-11 
25 5.69837e-10 1.27358e-10 -1.37939e-10 
29 2.07291e-10 4.24251e-11 -1.45464e-10 
33 1.61861e-10 -3.75542e-11 8.41286e-11 
37 4.60574e-10 -9.21733e-11 7.86214e-11 
41 5.4472e-10 -1.31611e-10 -9.12929e-11 
45 2.67618e-10 -8.55624e-11 -1.78452e-10 
49 9.88278e-11 -5.09268e-11 5.10973e-11 
53 1.72369e-10 -1.09762e-10 3.02068e-11 
57 2.24602e-10 -1.57075e-10 -3.98336e-11 
61 9.87336e-11 -7.83686e-11 -6.09358e-11 
65 4.94364e-11 6.93715e-11 6.58763e-11 
69 9.61158e-11 1.36653e-10 3.9486e-11 
73 1.9369e-10 2.37087e-10 -6.29517e-11 
77 1.50718e-10 1.71375e-10 -1.37367e-10 
81 1.08347e-11 9.18668e-11 6.63931e-11 
85 3.82749e-11 1.93615e-10 4.34943e-11 
89 8.95426e-11 2.41795e-10 -6.76739e-11 
93 5.06892e-11 1.3707e-10 -8.96598e-11 
97 -9.34716e-12 4.17448e-11 1.85998e-11 
101 -1.02849e-11 7.8041e-11 1.57832e-11 
105 -5.79047e-12 7.73603e-11 -1.6413e-11 
109 -1.45713e-11 6.66097e-11 -4.02389e-11 
113 0 0 0 
117 -1.12041e-11 2.14698e-11 2.19846e-12 
121 -1.41143e-11 3.61009e-11 -8.43335e-12 
125 -1.01129e-11 2.46065e-11 -1.22827e-11 
129 8.70056e-11 9.51746e-11 1.13358e-10 
133 1.75218e-10 5.63546e-11 2.3884e-10 
137 1.41232e-10 -5.00609e-11 1.77744e-10 
141 9.64785e-11 -8.40285e-11 1.07434e-10 
145 1.94085e-11 6.71825e-11 9.34144e-11 
149 7.6181e-11 6.01326e-11 2.05096e-10 
153 8.32423e-11 -6.63197e-11 2.90217e-10 
157 4.10274e-11 -7.35956e-11 9.24073e-11 
161 -4.53826e-12 2.08964e-11 5.96219e-11 
165 -5.05891e-12 1.66539e-11 1.13116e-10 
169 -2.48788e-11 -1.96276e-11 9.77987e-11 
173 -1.88885e-11 -8.69859e-11 1.29329e-10 
177 -2.02264e-12 -2.07308e-13 6.81766e-12 
181 -1.13377e-11 7.69128e-12 1.80992e-11 
185 -9.88608e-12 -4.22715e-12 1.99506e-11 
189 -1.4338e-11 -1.24926e-11 2.72741e-11 
2 1.64535e-10 1.08302e-10 8.24191e-11 
6 1.41272e-10 9.06596e-11 2.25849e-11 
10 2.15827e-10 1.22202e-10 -3.52498e-11 
14 1.4391e-10 6.57282e-11 -6.00393e-11 
18 2.76032e-10 6.32307e-11 1.48281e-10 
22 4.76117e-10 1.15746e-10 9.37103e-11 
26 5.1493e-10 9.87601e-11 -9.54837e-11 
30 2.17633e-10 3.72842e-11 -1.15274e-10 
34 2.41498e-10 -6.50817e-11 1.64846e-10 
38 5.2521e-10 -1.21009e-10 1.19039e-10 
42 5.46106e-10 -9.03179e-11 -1.24855e-10 
46 2.34219e-10 -2.275e-11 -1.42201e-10 
50 1.38688e-10 -1.02511e-10 8.51514e-11 
54 2.69203e-10 -1.81131e-10 4.68398e-11 
58 2.34903e-10 -1.64352e-10 -5.00021e-11 
62 1.46118e-10 -1.02038e-10 -1.14334e-10 
66 8.74936e-11 1.16577e-10 4.8544e-11 
70 9.06544e-11 1.11678e-10 2.15903e-11 
74 1.34742e-10 2.03217e-10 -3.56806e-11 
78 4.25473e-11 8.16284e-11 -4.48886e-11 
82 3.45434e-11 7.9009e-11 5.65567e-11 
86 7.03106e-11 2.54742e-10 5.71759e-11 
90 5.08127e-11 1.55714e-10 -3.30431e-11 
94 2.66551e-11 7.55384e-11 -3.70663e-11 
98 -3.20082e-12 3.66767e-11 1.95769e-11 
102 -2.5419e-11 1.04607e-10 3.73302e-11 
106 -1.70521e-11 9.17223e-11 -2.32256e-11 
110 -1.0124e-11 1.02066e-10 -8.38994e-11 
114 -8.89983e-12 2.07637e-11 2.21697e-11 
118 -4.86628e-12 7.68001e-12 2.36985e-12 
122 -8.84072e-12 2.0321e-11 -3.86843e-12 
126 -1.63712e-11 4.09375e-11 -3.18132e-11 
130 8.61297e-11 5.7053e-11 1.07651e-10 
134 1.50865e-10 3.65948e-11 1.99352e-10 
138 1.72866e-10 -5.6032e-11 2.32001e-10 
142 3.85451e-11 -3.05281e-11 5.09523e-11 
146 7.39744e-11 1.10038e-10 1.50339e-10 
150 8.88803e-11 5.8513e-11 2.78853e-10 
154 4.63688e-11 -2.77999e-11 1.39143e-10 
158 2.82097e-11 -5.56768e-11 8.00446e-11 
162 -3.63739e-12 5.43902e-11 7.18689e-11 
166 -5.87442e-12 1.01596e-11 4.43974e-11 
170 -1.73112e-11 -3.74006e-11 1.05712e-10 
174 -8.3954e-12 -1.53374e-11 2.33445e-11 
178 -1.54972e-11 1.58447e-11 2.60581e-11 
182 -1.5081e-11 2.15121e-12 2.94689e-11 
186 -1.14453e-11 -4.56996e-12 3.60907e-11 
190 -1.40347e-11 -9.82504e-12 1.31415e-11 
3 -6.04713e-12 2.94698e-12 2.43212e-12 
7 -2.53423e-11 2.08227e-11 2.41052e-12 
11 -2.11272e-11 1.77835e-11 -1.10644e-11 
15 -1.16219e-12 2.54173e-12 -1.19696e-12 
19 -5.26703e-12 7.91777e-13 6.52291e-12 
23 -1.63949e-11 6.32599e-12 9.00427e-12 
27 -1.58529e-11 3.85818e-12 -6.86234e-12 
31 -2.87114e-12 1.98753e-12 1.65572e-13 
35 -1.22602e-11 -7.82111e-12 9.61553e-12 
39 -1.42026e-11 -6.63449e-12 3.69131e-12 
43 -1.07837e-12 -1.94003e-12 2.7888e-13 
47 -7.56205e-12 -4.26408e-13 -4.6465e-12 
51 -9.87119e-12 -3.72242e-12 8.15409e-12 
55 0 0 0 
59 -1.32335e-11 -2.05588e-11 -6.14449e-12 
63 0 0 0 
67 8.60084e-11 -9.65229e-11 7.45501e-11 
71 1.17089e-10 -1.68608e-10 4.33634e-11 
75 1.93381e-10 -2.38756e-10 -5.68192e-11 
79 1.00541e-10 -1.09894e-10 -8.1447e-11 
83 2.6229e-11 -7.72192e-11 6.07357e-11 
87 4.51983e-11 -1.3247e-10 2.21052e-11 
91 7.1606e-11 -2.12993e-10 -6.66023e-11 
95 4.46744e-11 -1.29372e-10 -8.54836e-11 
99 -5.43297e-12 -9.1197e-11 5.98243e-11 
103 -1.60271e-11 -7.72506e-11 1.38457e-11 
107 -2.47967e-11 -1.42656e-10 -3.50762e-11 
111 -6.38913e-12 -5.37442e-11 -3.35189e-11 
115 -9.11021e-12 -2.17281e-11 4.08208e-12 
119 -1.04724e-11 -1.81062e-11 8.22173e-12 
123 -7.9584e-12 -8.03413e-12 -4.6365e-12 
127 -5.49607e-12 -9.2326e-12 -9.42614e-12 
131 4.90619e-11 7.87606e-11 -9.45558e-11 
135 8.29694e-11 4.11843e-11 -1.30892e-10 
139 1.85837e-10 -5.15013e-11 -2.17142e-10 
143 7.73019e-11 -7.28651e-11 -8.03271e-11 
147 3.45829e-11 6.57218e-11 -1.05504e-10 
151 5.92515e-11 4.17838e-11 -1.88921e-10 
155 6.14348e-11 -5.2594e-11 -1.61354e-10 
159 3.97478e-11 -5.75557e-11 -7.53651e-11 
163 6.29834e-13 2.31375e-11 -2.60062e-11 
167 -1.6174e-11 4.79135e-12 -9.91432e-11 
171 -7.09408e-12 -1.43874e-11 -7.0557e-11 
175 -1.19447e-11 -4.22321e-11 -7.02214e-11 
179 -7.81396e-12 1.35167e-11 -1.95615e-11 
183 -6.95691e-12 6.21462e-12 -1.34793e-11 
187 -1.05664e-11 -3.62418e-12 -1.99169e-11 
191 -1.3585e-11 -1.68992e-11 -3.03876e-11 
4 -1.7582e-11 2.1251e-11 1.67298e-11 
8 -1.11663e-11 1.33943e-11 7.79861e-12 
12 -8.13443e-12 2.12005e-12 -3.00275e-12 
16 -5.26675e-12 2.83868e-12 -4.48625e-12 
20 -7.45078e-12 6.72304e-12 1.08847e-11 
24 -1.89653e-12 1.18291e-13 -4.65853e-13 
28 -1.27928e-11 7.93831e-12 -1.23359e-12 
32 -2.10984e-12 -6.2999e-13 -5.36715e-12 
36 -7.39754e-12 -4.32411e-12 5.12954e-12 
40 -8.81328e-12 -2.48163e-12 3.81287e-12 
44 -1.08993e-11 -5.09823e-12 -3.59051e-12 
48 -3.76246e-12 -1.3104e-12 -6.38502e-12 
52 -1.51548e-11 -9.93189e-12 8.07038e-12 
56 -1.5197e-11 -1.78562e-11 7.06327e-12 
60 -3.41896e-12 -1.11981e-12 -2.12265e-12 
64 -1.49085e-11 -7.66314e-12 -1.30278e-11 
68 6.37017e-11 -8.80618e-11 5.86472e-11 
72 1.1904e-10 -1.44448e-10 2.80613e-11 
76 1.07828e-10 -1.74536e-10 -2.43499e-11 
80 4.5647e-11 -6.61312e-11 -3.88887e-11 
84 1.74003e-11 -7.9001e-11 5.69785e-11 
88 7.41153e-11 -1.87526e-10 3.79693e-11 
92 4.29275e-11 -1.68957e-10 -6.17014e-11 
96 2.40038e-11 -7.96286e-11 -5.60015e-11 
100 -2.44795e-12 -6.21658e-11 4.21397e-11 
104 -7.49542e-12 -1.46332e-10 3.90264e-11 
108 -6.71633e-12 -7.33671e-11 -1.73525e-11 
112 -8.59582e-12 -2.6011e-11 -1.72402e-11 
116 -3.776e-12 -1.29028e-11 1.46838e-11 
120 -1.84177e-11 -3.59681e-11 7.40407e-12 
124 -6.6689e-12 -1.47124e-11 1.26425e-12 
128 -2.43826e-13 -8.88741e-12 -8.45813e-12 
132 5.5645e-11 4.79121e-11 -7.06047e-11 
136 1.45318e-10 2.92344e-11 -1.82947e-10 
140 9.4956e-11 -3.74738e-11 -1.248e-10 
144 1.01405e-10 -9.28162e-11 -1.43346e-10 
148 3.25926e-11 7.10977e-11 -1.22275e-10 
152 5.66842e-11 3.92567e-11 -2.05134e-10 
156 6.18336e-11 -3.49746e-11 -2.29227e-10 
160 3.88801e-11 -6.77725e-11 -1.02369e-10 
164 -5.11596e-12 3.85328e-11 -5.22469e-11 
168 -2.56465e-11 2.76485e-11 -9.65002e-11 
172 -3.64945e-12 -3.23762e-11 -1.1252e-10 
176 -1.23358e-11 -3.87246e-11 -6.17306e-11 
180 -3.72915e-12 5.53311e-12 -8.29989e-12 
184 -3.87265e-12 3.20954e-12 -1.1335e-11 
188 -9.54231e-12 -8.68959e-14 -1.18487e-11 
192 -1.0881e-11 -8.80058e-12 -2.19352e-11 
